<?xml version="1.0" encoding="UTF-8"?>

<!-- generated on Tue Jun 12 15:47:12 2018 by SUMO Version 0.30.0
<?xml version="1.0" encoding="UTF-8"?>

<configuration xmlns:xsi="http://www.w3.org/2001/XMLSchema-instance" xsi:noNamespaceSchemaLocation="http://sumo.dlr.de/xsd/sumoConfiguration.xsd">

    <input>
        <net-file value="/home/levente/Egyetem/6_felev/onlab/BAH/BAH0.net.xml"/>
        <route-files value="/home/levente/Egyetem/6_felev/onlab/BAH/BAH0.rou.xml"/>
    </input>

    <output>
        <tripinfo-output value="ejjellog.txt"/>
    </output>

    <time>
        <begin value="0"/>
        <end value="500"/>
    </time>

    <processing>
        <time-to-teleport value="-1"/>
    </processing>

    <report>
        <verbose value="true"/>
        <log value="/home/levente/Egyetem/6_felev/onlab/nappal.txt"/>
        <duration-log.statistics value="true"/>
    </report>

    <emissions>
        <device.emissions.probability value="1"/>
    </emissions>

</configuration>
-->

<tripinfos xmlns:xsi="http://www.w3.org/2001/XMLSchema-instance" xsi:noNamespaceSchemaLocation="http://sumo.dlr.de/xsd/tripinfo_file.xsd">
    <tripinfo id="carflow23.0" depart="0.00" departLane="AlkotasBe_0" departPos="61.45" departSpeed="13.89" departDelay="0.00" arrival="83.00" arrivalLane="JagelloKi_0" arrivalPos="459.55" arrivalSpeed="12.98" duration="83.00" routeLength="1060.45" waitSteps="0" timeLoss="6.59" rerouteNo="1" devices="tripinfo_carflow23.0 routing_carflow23.0 emissions_carflow23.0" vType="golfiv" speedFactor="1.00" vaporized="">
        <emissions CO_abs="1561.146289" CO2_abs="176958.948249" HC_abs="11.191509" PMx_abs="2.472608" NOx_abs="66.702430" fuel_abs="76.067235" electricity_abs="0"/>
    </tripinfo>
    <tripinfo id="carflow17.0" depart="0.00" departLane="JagelloBe_0" departPos="414.13" departSpeed="13.89" departDelay="0.00" arrival="110.00" arrivalLane="AlkotasKi_1" arrivalPos="139.14" arrivalSpeed="12.84" duration="110.00" routeLength="779.09" waitSteps="37" timeLoss="53.10" rerouteNo="1" devices="tripinfo_carflow17.0 routing_carflow17.0 emissions_carflow17.0" vType="golfiv" speedFactor="1.00" vaporized="">
        <emissions CO_abs="2693.379871" CO2_abs="171393.581429" HC_abs="16.283322" PMx_abs="2.983152" NOx_abs="69.463937" fuel_abs="73.674920" electricity_abs="0"/>
    </tripinfo>
    <tripinfo id="carflow10.0" depart="0.00" departLane="HegyaljaNyugatBe_0" departPos="915.12" departSpeed="13.89" departDelay="0.00" arrival="112.00" arrivalLane="AlkotasKi_2" arrivalPos="139.14" arrivalSpeed="13.76" duration="112.00" routeLength="720.82" waitSteps="47" timeLoss="59.20" rerouteNo="1" devices="tripinfo_carflow10.0 routing_carflow10.0 emissions_carflow10.0" vType="golfiv" speedFactor="1.00" vaporized="">
        <emissions CO_abs="5944.180440" CO2_abs="226278.007698" HC_abs="32.327124" PMx_abs="4.130403" NOx_abs="92.837560" fuel_abs="97.269195" electricity_abs="0"/>
    </tripinfo>
    <tripinfo id="carflow21.0" depart="0.00" departLane="AlkotasBe_2" departPos="82.09" departSpeed="13.89" departDelay="0.00" arrival="115.00" arrivalLane="HegyaljaKeletKi_1" arrivalPos="55.97" arrivalSpeed="13.72" duration="115.00" routeLength="1324.16" waitSteps="5" timeLoss="19.03" rerouteNo="1" devices="tripinfo_carflow21.0 routing_carflow21.0 emissions_carflow21.0" vType="golfiv" speedFactor="1.00" vaporized="">
        <emissions CO_abs="2625.161069" CO2_abs="236663.279976" HC_abs="17.395228" PMx_abs="3.564545" NOx_abs="91.278444" fuel_abs="101.731640" electricity_abs="0"/>
    </tripinfo>
    <tripinfo id="carflow3.0" depart="0.00" departLane="HegyaljaKeletBe_0" departPos="78.95" departSpeed="13.89" departDelay="0.00" arrival="115.00" arrivalLane="AlkotasKi_1" arrivalPos="139.14" arrivalSpeed="13.28" duration="115.00" routeLength="1449.12" waitSteps="0" timeLoss="10.55" rerouteNo="1" devices="tripinfo_carflow3.0 routing_carflow3.0 emissions_carflow3.0" vType="golfiv" speedFactor="1.00" vaporized="">
        <emissions CO_abs="2334.880852" CO2_abs="232263.748853" HC_abs="15.984791" PMx_abs="3.394099" NOx_abs="88.777097" fuel_abs="99.840436" electricity_abs="0"/>
    </tripinfo>
    <tripinfo id="carflow27.0" depart="0.00" departLane="AlkotasBe_2" departPos="40.81" departSpeed="13.89" departDelay="0.00" arrival="134.00" arrivalLane="KarolinaKi_1" arrivalPos="90.50" arrivalSpeed="13.84" duration="134.00" routeLength="1781.24" waitSteps="0" timeLoss="5.46" rerouteNo="1" devices="tripinfo_carflow27.0 routing_carflow27.0 emissions_carflow27.0" vType="golfiv" speedFactor="1.00" vaporized="">
        <emissions CO_abs="1615.946145" CO2_abs="244361.468276" HC_abs="12.973490" PMx_abs="3.145057" NOx_abs="89.541418" fuel_abs="105.040789" electricity_abs="0"/>
    </tripinfo>
    <tripinfo id="carflow7.0" depart="0.00" departLane="HegyaljaNyugatBe_0" departPos="935.76" departSpeed="13.89" departDelay="0.00" arrival="136.00" arrivalLane="HegyaljaKeletKi_1" arrivalPos="55.97" arrivalSpeed="13.76" duration="136.00" routeLength="1098.41" waitSteps="41" timeLoss="56.74" rerouteNo="1" devices="tripinfo_carflow7.0 routing_carflow7.0 emissions_carflow7.0" vType="golfiv" speedFactor="1.00" vaporized="">
        <emissions CO_abs="4413.893181" CO2_abs="247536.254015" HC_abs="25.844250" PMx_abs="4.090462" NOx_abs="98.243676" fuel_abs="106.406314" electricity_abs="0"/>
    </tripinfo>
    <tripinfo id="carflow14.0" depart="0.00" departLane="JagelloBe_0" departPos="455.41" departSpeed="13.89" departDelay="0.00" arrival="137.00" arrivalLane="HegyaljaKeletKi_2" arrivalPos="55.97" arrivalSpeed="13.63" duration="137.00" routeLength="1136.04" waitSteps="32" timeLoss="54.21" rerouteNo="1" devices="tripinfo_carflow14.0 routing_carflow14.0 emissions_carflow14.0" vType="golfiv" speedFactor="1.00" vaporized="">
        <emissions CO_abs="5782.143663" CO2_abs="287924.859559" HC_abs="33.050048" PMx_abs="5.115027" NOx_abs="117.317287" fuel_abs="123.767754" electricity_abs="0"/>
    </tripinfo>
    <tripinfo id="carflow41.0" depart="1.00" departLane="BudaorsiBe_1" departPos="8.72" departSpeed="16.67" departDelay="1.00" arrival="142.00" arrivalLane="KarolinaKi_1" arrivalPos="90.50" arrivalSpeed="13.51" duration="141.00" routeLength="1806.26" waitSteps="0" timeLoss="10.57" rerouteNo="1" devices="tripinfo_carflow41.0 routing_carflow41.0 emissions_carflow41.0" vType="golfiv" speedFactor="1.00" vaporized="">
        <emissions CO_abs="2407.391452" CO2_abs="284050.734669" HC_abs="17.462890" PMx_abs="3.882203" NOx_abs="106.258852" fuel_abs="122.101572" electricity_abs="0"/>
    </tripinfo>
    <tripinfo id="carflow20.0" depart="0.00" departLane="JagelloBe_0" departPos="352.21" departSpeed="13.89" departDelay="0.00" arrival="150.00" arrivalLane="KarolinaKi_1" arrivalPos="90.50" arrivalSpeed="13.36" duration="150.00" routeLength="1587.34" waitSteps="20" timeLoss="34.80" rerouteNo="1" devices="tripinfo_carflow20.0 routing_carflow20.0 emissions_carflow20.0" vType="golfiv" speedFactor="1.00" vaporized="">
        <emissions CO_abs="2568.844803" CO2_abs="247361.393517" HC_abs="17.401403" PMx_abs="3.599458" NOx_abs="94.276778" fuel_abs="106.330393" electricity_abs="0"/>
    </tripinfo>
    <tripinfo id="carflow44.0" depart="0.00" departLane="KarolinaBe_0" departPos="36.12" departSpeed="13.89" departDelay="0.00" arrival="150.00" arrivalLane="JagelloKi_0" arrivalPos="459.55" arrivalSpeed="13.83" duration="150.00" routeLength="1920.18" waitSteps="0" timeLoss="10.95" rerouteNo="1" devices="tripinfo_carflow44.0 routing_carflow44.0 emissions_carflow44.0" vType="golfiv" speedFactor="1.00" vaporized="">
        <emissions CO_abs="2578.530549" CO2_abs="292771.877775" HC_abs="18.479546" PMx_abs="4.144840" NOx_abs="110.596603" fuel_abs="125.850279" electricity_abs="0"/>
    </tripinfo>
    <tripinfo id="carflow26.0" depart="0.00" departLane="AlkotasBe_1" departPos="82.09" departSpeed="13.89" departDelay="0.00" arrival="151.00" arrivalLane="BudaorsiKi_0" arrivalPos="614.60" arrivalSpeed="13.83" duration="151.00" routeLength="2016.15" waitSteps="0" timeLoss="5.60" rerouteNo="1" devices="tripinfo_carflow26.0 routing_carflow26.0 emissions_carflow26.0" vType="golfiv" speedFactor="1.00" vaporized="">
        <emissions CO_abs="1572.556867" CO2_abs="265512.952183" HC_abs="13.192213" PMx_abs="3.251404" NOx_abs="95.920156" fuel_abs="114.133048" electricity_abs="0"/>
    </tripinfo>
    <tripinfo id="carflow15.0" depart="0.00" departLane="JagelloBe_0" departPos="434.77" departSpeed="13.89" departDelay="0.00" arrival="155.00" arrivalLane="HegyaljaNyugatKi_0" arrivalPos="401.54" arrivalSpeed="12.85" duration="155.00" routeLength="1662.69" waitSteps="25" timeLoss="35.07" rerouteNo="1" devices="tripinfo_carflow15.0 routing_carflow15.0 emissions_carflow15.0" vType="golfiv" speedFactor="1.00" vaporized="">
        <emissions CO_abs="3343.620866" CO2_abs="270920.393338" HC_abs="21.438763" PMx_abs="3.957492" NOx_abs="103.175516" fuel_abs="116.457873" electricity_abs="0"/>
    </tripinfo>
    <tripinfo id="carflow2.0" depart="0.00" departLane="HegyaljaKeletBe_0" departPos="99.59" departSpeed="13.89" departDelay="0.00" arrival="160.00" arrivalLane="JagelloKi_0" arrivalPos="459.55" arrivalSpeed="13.74" duration="160.00" routeLength="1675.06" waitSteps="24" timeLoss="38.59" rerouteNo="1" devices="tripinfo_carflow2.0 routing_carflow2.0 emissions_carflow2.0" vType="golfiv" speedFactor="1.00" vaporized="">
        <emissions CO_abs="3963.207400" CO2_abs="308023.200338" HC_abs="25.198505" PMx_abs="4.871749" NOx_abs="120.656996" fuel_abs="132.406368" electricity_abs="0"/>
    </tripinfo>
    <tripinfo id="carflow38.0" depart="0.00" departLane="BudaorsiBe_1" departPos="16.85" departSpeed="16.67" departDelay="0.00" arrival="170.00" arrivalLane="AlkotasKi_2" arrivalPos="139.14" arrivalSpeed="13.35" duration="170.00" routeLength="1808.24" waitSteps="15" timeLoss="39.64" rerouteNo="1" devices="tripinfo_carflow38.0 routing_carflow38.0 emissions_carflow38.0" vType="golfiv" speedFactor="1.00" vaporized="">
        <emissions CO_abs="4045.337299" CO2_abs="337325.190307" HC_abs="26.153710" PMx_abs="5.066515" NOx_abs="130.114114" fuel_abs="145.002252" electricity_abs="0"/>
    </tripinfo>
    <tripinfo id="carflow45.0" depart="0.00" departLane="KarolinaBe_0" departPos="15.48" departSpeed="13.89" departDelay="0.00" arrival="171.00" arrivalLane="AlkotasKi_1" arrivalPos="139.14" arrivalSpeed="13.44" duration="171.00" routeLength="1802.68" waitSteps="21" timeLoss="40.32" rerouteNo="1" devices="tripinfo_carflow45.0 routing_carflow45.0 emissions_carflow45.0" vType="golfiv" speedFactor="1.00" vaporized="">
        <emissions CO_abs="3242.319459" CO2_abs="309262.492077" HC_abs="21.859579" PMx_abs="4.344133" NOx_abs="116.899654" fuel_abs="132.939365" electricity_abs="0"/>
    </tripinfo>
    <tripinfo id="carflow19.0" depart="0.00" departLane="JagelloBe_0" departPos="372.85" departSpeed="13.89" departDelay="0.00" arrival="174.00" arrivalLane="BudaorsiKi_0" arrivalPos="614.60" arrivalSpeed="13.55" duration="174.00" routeLength="1831.98" waitSteps="21" timeLoss="41.51" rerouteNo="1" devices="tripinfo_carflow19.0 routing_carflow19.0 emissions_carflow19.0" vType="golfiv" speedFactor="1.00" vaporized="">
        <emissions CO_abs="3461.182261" CO2_abs="327460.917386" HC_abs="23.308570" PMx_abs="4.643455" NOx_abs="123.973389" fuel_abs="140.762099" electricity_abs="0"/>
    </tripinfo>
    <tripinfo id="carflow3.1" depart="60.00" departLane="HegyaljaKeletBe_0" departPos="99.59" departSpeed="13.89" departDelay="0.00" arrival="181.00" arrivalLane="AlkotasKi_1" arrivalPos="139.14" arrivalSpeed="13.45" duration="121.00" routeLength="1428.48" waitSteps="1" timeLoss="17.75" rerouteNo="1" devices="tripinfo_carflow3.1 routing_carflow3.1 emissions_carflow3.1" vType="golfiv" speedFactor="1.00" vaporized="">
        <emissions CO_abs="3223.111584" CO2_abs="256493.024022" HC_abs="20.630496" PMx_abs="4.059858" NOx_abs="100.704908" fuel_abs="110.255594" electricity_abs="0"/>
    </tripinfo>
    <tripinfo id="carflow22.0" depart="0.00" departLane="AlkotasBe_0" departPos="82.09" departSpeed="13.89" departDelay="0.00" arrival="184.00" arrivalLane="HegyaljaNyugatKi_0" arrivalPos="401.54" arrivalSpeed="13.11" duration="184.00" routeLength="2096.08" waitSteps="14" timeLoss="32.78" rerouteNo="1" devices="tripinfo_carflow22.0 routing_carflow22.0 emissions_carflow22.0" vType="golfiv" speedFactor="1.00" vaporized="">
        <emissions CO_abs="3373.879516" CO2_abs="335765.967132" HC_abs="23.109589" PMx_abs="4.783896" NOx_abs="127.371133" fuel_abs="144.331905" electricity_abs="0"/>
    </tripinfo>
    <tripinfo id="carflow42.0" depart="0.00" departLane="KarolinaBe_0" departPos="77.40" departSpeed="13.89" departDelay="0.00" arrival="192.00" arrivalLane="HegyaljaKeletKi_1" arrivalPos="55.97" arrivalSpeed="13.04" duration="192.00" routeLength="1466.48" waitSteps="67" timeLoss="86.09" rerouteNo="1" devices="tripinfo_carflow42.0 routing_carflow42.0 emissions_carflow42.0" vType="golfiv" speedFactor="1.00" vaporized="">
        <emissions CO_abs="7005.903818" CO2_abs="337964.468250" HC_abs="39.675626" PMx_abs="5.585354" NOx_abs="134.118583" fuel_abs="145.278756" electricity_abs="0"/>
    </tripinfo>
    <tripinfo id="carflow6.0" depart="0.00" departLane="HegyaljaKeletBe_1" departPos="99.59" departSpeed="13.89" departDelay="0.00" arrival="193.00" arrivalLane="KarolinaKi_1" arrivalPos="90.50" arrivalSpeed="13.55" duration="193.00" routeLength="1817.89" waitSteps="41" timeLoss="61.95" rerouteNo="1" devices="tripinfo_carflow6.0 routing_carflow6.0 emissions_carflow6.0" vType="golfiv" speedFactor="1.00" vaporized="">
        <emissions CO_abs="5861.250756" CO2_abs="350405.657559" HC_abs="34.767199" PMx_abs="5.621872" NOx_abs="137.570566" fuel_abs="150.625874" electricity_abs="0"/>
    </tripinfo>
    <tripinfo id="carflow28.0" depart="0.00" departLane="VillanyiBe_0" departPos="598.48" departSpeed="13.89" departDelay="0.00" arrival="194.00" arrivalLane="HegyaljaKeletKi_1" arrivalPos="55.97" arrivalSpeed="13.20" duration="194.00" routeLength="1504.74" waitSteps="66" timeLoss="84.97" rerouteNo="1" devices="tripinfo_carflow28.0 routing_carflow28.0 emissions_carflow28.0" vType="golfiv" speedFactor="1.00" vaporized="">
        <emissions CO_abs="9055.123981" CO2_abs="379400.229512" HC_abs="50.042266" PMx_abs="6.670476" NOx_abs="153.524314" fuel_abs="163.090874" electricity_abs="0"/>
    </tripinfo>
    <tripinfo id="carflow37.0" depart="0.00" departLane="BudaorsiBe_0" departPos="16.85" departSpeed="16.67" departDelay="0.00" arrival="200.00" arrivalLane="JagelloKi_0" arrivalPos="459.55" arrivalSpeed="13.66" duration="200.00" routeLength="1946.38" waitSteps="36" timeLoss="59.32" rerouteNo="1" devices="tripinfo_carflow37.0 routing_carflow37.0 emissions_carflow37.0" vType="golfiv" speedFactor="1.00" vaporized="">
        <emissions CO_abs="5011.854229" CO2_abs="380793.665920" HC_abs="31.658576" PMx_abs="6.087131" NOx_abs="149.710298" fuel_abs="163.687348" electricity_abs="0"/>
    </tripinfo>
    <tripinfo id="carflow35.0" depart="0.00" departLane="BudaorsiBe_0" departPos="48.61" departSpeed="13.89" departDelay="0.00" arrival="203.00" arrivalLane="HegyaljaKeletKi_2" arrivalPos="55.97" arrivalSpeed="13.28" duration="203.00" routeLength="2158.18" waitSteps="24" timeLoss="46.84" rerouteNo="1" devices="tripinfo_carflow35.0 routing_carflow35.0 emissions_carflow35.0" vType="golfiv" speedFactor="1.00" vaporized="">
        <emissions CO_abs="4885.718059" CO2_abs="425413.334356" HC_abs="32.107020" PMx_abs="6.502273" NOx_abs="165.016098" fuel_abs="182.867367" electricity_abs="0"/>
    </tripinfo>
    <tripinfo id="carflow13.0" depart="0.00" departLane="HegyaljaNyugatBe_0" departPos="853.20" departSpeed="13.89" departDelay="0.00" arrival="204.00" arrivalLane="KarolinaKi_1" arrivalPos="90.50" arrivalSpeed="13.61" duration="204.00" routeLength="1529.07" waitSteps="74" timeLoss="93.61" rerouteNo="1" devices="tripinfo_carflow13.0 routing_carflow13.0 emissions_carflow13.0" vType="golfiv" speedFactor="1.00" vaporized="">
        <emissions CO_abs="8767.653632" CO2_abs="370647.984333" HC_abs="48.514365" PMx_abs="6.517760" NOx_abs="149.886754" fuel_abs="159.328528" electricity_abs="0"/>
    </tripinfo>
    <tripinfo id="carflow14.1" depart="100.00" departLane="JagelloBe_0" departPos="455.41" departSpeed="13.89" departDelay="0.00" arrival="205.00" arrivalLane="HegyaljaKeletKi_1" arrivalPos="55.97" arrivalSpeed="13.47" duration="105.00" routeLength="1136.04" waitSteps="13" timeLoss="22.96" rerouteNo="1" devices="tripinfo_carflow14.1 routing_carflow14.1 emissions_carflow14.1" vType="golfiv" speedFactor="1.00" vaporized="">
        <emissions CO_abs="1915.971688" CO2_abs="189163.263422" HC_abs="13.051383" PMx_abs="2.751375" NOx_abs="72.070555" fuel_abs="81.313388" electricity_abs="0"/>
    </tripinfo>
    <tripinfo id="carflow25.0" depart="0.00" departLane="AlkotasBe_2" departPos="61.45" departSpeed="13.89" departDelay="0.00" arrival="209.00" arrivalLane="VillanyiKi_0" arrivalPos="613.00" arrivalSpeed="13.65" duration="209.00" routeLength="2354.91" waitSteps="26" timeLoss="39.13" rerouteNo="1" devices="tripinfo_carflow25.0 routing_carflow25.0 emissions_carflow25.0" vType="golfiv" speedFactor="1.00" vaporized="">
        <emissions CO_abs="4473.485573" CO2_abs="362114.867382" HC_abs="28.708314" PMx_abs="5.338547" NOx_abs="138.195775" fuel_abs="155.658677" electricity_abs="0"/>
    </tripinfo>
    <tripinfo id="carflow39.0" depart="1.00" departLane="BudaorsiBe_0" departPos="9.90" departSpeed="16.67" departDelay="1.00" arrival="211.00" arrivalLane="VillanyiKi_0" arrivalPos="613.00" arrivalSpeed="12.86" duration="210.00" routeLength="2399.39" waitSteps="17" timeLoss="37.23" rerouteNo="1" devices="tripinfo_carflow39.0 routing_carflow39.0 emissions_carflow39.0" vType="golfiv" speedFactor="1.00" vaporized="">
        <emissions CO_abs="4013.775625" CO2_abs="400073.172121" HC_abs="27.428758" PMx_abs="5.710992" NOx_abs="151.812307" fuel_abs="171.974879" electricity_abs="0"/>
    </tripinfo>
    <tripinfo id="carflow2.1" depart="60.00" departLane="HegyaljaKeletBe_0" departPos="120.23" departSpeed="13.89" departDelay="0.00" arrival="212.00" arrivalLane="JagelloKi_0" arrivalPos="459.55" arrivalSpeed="12.97" duration="152.00" routeLength="1654.42" waitSteps="11" timeLoss="32.24" rerouteNo="1" devices="tripinfo_carflow2.1 routing_carflow2.1 emissions_carflow2.1" vType="golfiv" speedFactor="1.00" vaporized="">
        <emissions CO_abs="4057.882889" CO2_abs="329165.549897" HC_abs="26.043871" PMx_abs="5.072986" NOx_abs="128.111543" fuel_abs="141.494623" electricity_abs="0"/>
    </tripinfo>
    <tripinfo id="carflow31.0" depart="0.00" departLane="VillanyiBe_0" departPos="536.56" departSpeed="13.89" departDelay="0.00" arrival="222.00" arrivalLane="AlkotasKi_1" arrivalPos="139.14" arrivalSpeed="13.55" duration="222.00" routeLength="1846.03" waitSteps="63" timeLoss="88.15" rerouteNo="1" devices="tripinfo_carflow31.0 routing_carflow31.0 emissions_carflow31.0" vType="golfiv" speedFactor="1.00" vaporized="">
        <emissions CO_abs="5867.602540" CO2_abs="397773.814198" HC_abs="35.851490" PMx_abs="6.190161" NOx_abs="154.981106" fuel_abs="170.987228" electricity_abs="0"/>
    </tripinfo>
    <tripinfo id="carflow35.1" depart="30.00" departLane="BudaorsiBe_0" departPos="48.61" departSpeed="13.89" departDelay="0.00" arrival="226.00" arrivalLane="HegyaljaKeletKi_1" arrivalPos="55.97" arrivalSpeed="13.22" duration="196.00" routeLength="2158.18" waitSteps="10" timeLoss="40.51" rerouteNo="1" devices="tripinfo_carflow35.1 routing_carflow35.1 emissions_carflow35.1" vType="golfiv" speedFactor="1.00" vaporized="">
        <emissions CO_abs="5100.921629" CO2_abs="406563.011080" HC_abs="32.600022" PMx_abs="6.246608" NOx_abs="158.012631" fuel_abs="174.764704" electricity_abs="0"/>
    </tripinfo>
    <tripinfo id="carflow12.0" depart="0.00" departLane="HegyaljaNyugatBe_0" departPos="873.84" departSpeed="13.89" departDelay="0.00" arrival="226.00" arrivalLane="BudaorsiKi_0" arrivalPos="614.60" arrivalSpeed="12.94" duration="226.00" routeLength="1773.71" waitSteps="78" timeLoss="97.70" rerouteNo="1" devices="tripinfo_carflow12.0 routing_carflow12.0 emissions_carflow12.0" vType="golfiv" speedFactor="1.00" vaporized="">
        <emissions CO_abs="6859.570570" CO2_abs="355231.425527" HC_abs="39.420092" PMx_abs="5.868121" NOx_abs="140.696224" fuel_abs="152.700797" electricity_abs="0"/>
    </tripinfo>
    <tripinfo id="carflow19.1" depart="85.00" departLane="JagelloBe_0" departPos="455.41" departSpeed="13.89" departDelay="-0.71" arrival="228.00" arrivalLane="BudaorsiKi_0" arrivalPos="614.60" arrivalSpeed="13.85" duration="143.00" routeLength="1749.42" waitSteps="4" timeLoss="16.41" rerouteNo="1" devices="tripinfo_carflow19.1 routing_carflow19.1 emissions_carflow19.1" vType="golfiv" speedFactor="1.00" vaporized="">
        <emissions CO_abs="2746.106918" CO2_abs="290607.159031" HC_abs="19.191311" PMx_abs="4.111088" NOx_abs="109.842202" fuel_abs="124.919915" electricity_abs="0"/>
    </tripinfo>
    <tripinfo id="carflow7.1" depart="120.00" departLane="HegyaljaNyugatBe_0" departPos="935.76" departSpeed="13.89" departDelay="0.00" arrival="230.00" arrivalLane="HegyaljaKeletKi_1" arrivalPos="55.97" arrivalSpeed="12.89" duration="110.00" routeLength="1098.41" waitSteps="21" timeLoss="30.45" rerouteNo="1" devices="tripinfo_carflow7.1 routing_carflow7.1 emissions_carflow7.1" vType="golfiv" speedFactor="1.00" vaporized="">
        <emissions CO_abs="1750.334168" CO2_abs="164794.734004" HC_abs="11.783888" PMx_abs="2.453137" NOx_abs="63.276292" fuel_abs="70.838353" electricity_abs="0"/>
    </tripinfo>
    <tripinfo id="carflow4.0" depart="0.00" departLane="HegyaljaKeletBe_1" departPos="120.23" departSpeed="13.89" departDelay="0.00" arrival="235.00" arrivalLane="VillanyiKi_0" arrivalPos="613.00" arrivalSpeed="13.50" duration="235.00" routeLength="2378.21" waitSteps="45" timeLoss="63.48" rerouteNo="1" devices="tripinfo_carflow4.0 routing_carflow4.0 emissions_carflow4.0" vType="golfiv" speedFactor="1.00" vaporized="">
        <emissions CO_abs="5131.666295" CO2_abs="408383.777344" HC_abs="32.766591" PMx_abs="5.936151" NOx_abs="155.492078" fuel_abs="175.548016" electricity_abs="0"/>
    </tripinfo>
    <tripinfo id="carflow5.0" depart="0.00" departLane="HegyaljaKeletBe_0" departPos="58.31" departSpeed="13.89" departDelay="0.00" arrival="243.00" arrivalLane="BudaorsiKi_0" arrivalPos="614.60" arrivalSpeed="13.81" duration="243.00" routeLength="2661.54" waitSteps="33" timeLoss="50.92" rerouteNo="1" devices="tripinfo_carflow5.0 routing_carflow5.0 emissions_carflow5.0" vType="golfiv" speedFactor="1.00" vaporized="">
        <emissions CO_abs="5791.981672" CO2_abs="444872.469575" HC_abs="36.655380" PMx_abs="6.622711" NOx_abs="170.614272" fuel_abs="191.232975" electricity_abs="0"/>
    </tripinfo>
    <tripinfo id="carflow5.1" depart="20.00" departLane="HegyaljaKeletBe_0" departPos="120.23" departSpeed="13.89" departDelay="0.00" arrival="245.00" arrivalLane="BudaorsiKi_0" arrivalPos="614.60" arrivalSpeed="12.86" duration="225.00" routeLength="2599.62" waitSteps="20" timeLoss="37.23" rerouteNo="1" devices="tripinfo_carflow5.1 routing_carflow5.1 emissions_carflow5.1" vType="golfiv" speedFactor="1.00" vaporized="">
        <emissions CO_abs="3710.534914" CO2_abs="404580.592367" HC_abs="26.176826" PMx_abs="5.660260" NOx_abs="152.320110" fuel_abs="173.912363" electricity_abs="0"/>
    </tripinfo>
    <tripinfo id="carflow1.0" depart="0.00" departLane="HegyaljaKeletBe_0" departPos="120.23" departSpeed="13.89" departDelay="0.00" arrival="247.00" arrivalLane="HegyaljaNyugatKi_0" arrivalPos="401.54" arrivalSpeed="12.90" duration="247.00" routeLength="2710.69" waitSteps="25" timeLoss="51.09" rerouteNo="1" devices="tripinfo_carflow1.0 routing_carflow1.0 emissions_carflow1.0" vType="golfiv" speedFactor="1.00" vaporized="">
        <emissions CO_abs="6127.037149" CO2_abs="488660.333107" HC_abs="39.126542" PMx_abs="7.346488" NOx_abs="188.293774" fuel_abs="210.055265" electricity_abs="0"/>
    </tripinfo>
    <tripinfo id="carflow3.2" depart="120.00" departLane="HegyaljaKeletBe_0" departPos="78.95" departSpeed="13.89" departDelay="0.00" arrival="248.00" arrivalLane="AlkotasKi_1" arrivalPos="139.14" arrivalSpeed="13.35" duration="128.00" routeLength="1449.12" waitSteps="8" timeLoss="22.87" rerouteNo="1" devices="tripinfo_carflow3.2 routing_carflow3.2 emissions_carflow3.2" vType="golfiv" speedFactor="1.00" vaporized="">
        <emissions CO_abs="3069.395329" CO2_abs="264676.793945" HC_abs="20.123010" PMx_abs="4.046988" NOx_abs="102.736917" fuel_abs="113.773483" electricity_abs="0"/>
    </tripinfo>
    <tripinfo id="carflow26.1" depart="60.00" departLane="AlkotasBe_0" departPos="82.09" departSpeed="13.89" departDelay="0.00" arrival="249.00" arrivalLane="BudaorsiKi_0" arrivalPos="614.60" arrivalSpeed="13.56" duration="189.00" routeLength="2016.15" waitSteps="33" timeLoss="43.30" rerouteNo="1" devices="tripinfo_carflow26.1 routing_carflow26.1 emissions_carflow26.1" vType="golfiv" speedFactor="1.00" vaporized="">
        <emissions CO_abs="4660.282260" CO2_abs="332727.331280" HC_abs="28.800921" PMx_abs="4.795235" NOx_abs="126.038771" fuel_abs="143.026806" electricity_abs="0"/>
    </tripinfo>
    <tripinfo id="carflow30.0" depart="0.00" departLane="VillanyiBe_0" departPos="557.20" departSpeed="13.89" departDelay="0.00" arrival="253.00" arrivalLane="JagelloKi_0" arrivalPos="459.55" arrivalSpeed="12.94" duration="253.00" routeLength="1963.53" waitSteps="84" timeLoss="110.92" rerouteNo="1" devices="tripinfo_carflow30.0 routing_carflow30.0 emissions_carflow30.0" vType="golfiv" speedFactor="1.00" vaporized="">
        <emissions CO_abs="10338.077920" CO2_abs="465280.822351" HC_abs="57.876410" PMx_abs="8.182322" NOx_abs="188.416045" fuel_abs="200.007257" electricity_abs="0"/>
    </tripinfo>
    <tripinfo id="carflow2.2" depart="120.00" departLane="HegyaljaKeletBe_0" departPos="99.59" departSpeed="13.89" departDelay="0.00" arrival="265.00" arrivalLane="JagelloKi_0" arrivalPos="459.55" arrivalSpeed="13.54" duration="145.00" routeLength="1675.06" waitSteps="6" timeLoss="24.02" rerouteNo="1" devices="tripinfo_carflow2.2 routing_carflow2.2 emissions_carflow2.2" vType="golfiv" speedFactor="1.00" vaporized="">
        <emissions CO_abs="3742.681576" CO2_abs="317574.160021" HC_abs="24.363758" PMx_abs="4.925638" NOx_abs="123.765849" fuel_abs="136.511775" electricity_abs="0"/>
    </tripinfo>
    <tripinfo id="carflow10.1" depart="150.00" departLane="HegyaljaNyugatBe_0" departPos="935.76" departSpeed="13.89" departDelay="0.00" arrival="267.00" arrivalLane="AlkotasKi_1" arrivalPos="139.14" arrivalSpeed="13.07" duration="117.00" routeLength="700.18" waitSteps="50" timeLoss="65.75" rerouteNo="1" devices="tripinfo_carflow10.1 routing_carflow10.1 emissions_carflow10.1" vType="golfiv" speedFactor="1.00" vaporized="">
        <emissions CO_abs="3431.594526" CO2_abs="177344.555214" HC_abs="19.753788" PMx_abs="3.066874" NOx_abs="71.825892" fuel_abs="76.233567" electricity_abs="0"/>
    </tripinfo>
    <tripinfo id="carflow18.0" depart="0.00" departLane="JagelloBe_0" departPos="393.49" departSpeed="13.89" departDelay="0.00" arrival="268.00" arrivalLane="VillanyiKi_0" arrivalPos="613.00" arrivalSpeed="13.24" duration="268.00" routeLength="2140.37" waitSteps="79" timeLoss="113.05" rerouteNo="1" devices="tripinfo_carflow18.0 routing_carflow18.0 emissions_carflow18.0" vType="golfiv" speedFactor="1.00" vaporized="">
        <emissions CO_abs="7600.784750" CO2_abs="472077.016477" HC_abs="45.521551" PMx_abs="7.529893" NOx_abs="185.453866" fuel_abs="202.927477" electricity_abs="0"/>
    </tripinfo>
    <tripinfo id="carflow11.0" depart="0.00" departLane="HegyaljaNyugatBe_0" departPos="894.48" departSpeed="13.89" departDelay="0.00" arrival="269.00" arrivalLane="VillanyiKi_0" arrivalPos="613.00" arrivalSpeed="13.69" duration="269.00" routeLength="2082.10" waitSteps="92" timeLoss="118.92" rerouteNo="1" devices="tripinfo_carflow11.0 routing_carflow11.0 emissions_carflow11.0" vType="golfiv" speedFactor="1.00" vaporized="">
        <emissions CO_abs="10242.238027" CO2_abs="484779.333075" HC_abs="57.864165" PMx_abs="8.278782" NOx_abs="194.240796" fuel_abs="208.388929" electricity_abs="0"/>
    </tripinfo>
    <tripinfo id="carflow38.1" depart="120.00" departLane="BudaorsiBe_1" departPos="48.61" departSpeed="13.89" departDelay="0.00" arrival="273.00" arrivalLane="AlkotasKi_1" arrivalPos="139.14" arrivalSpeed="13.40" duration="153.00" routeLength="1776.48" waitSteps="11" timeLoss="24.92" rerouteNo="1" devices="tripinfo_carflow38.1 routing_carflow38.1 emissions_carflow38.1" vType="golfiv" speedFactor="1.00" vaporized="">
        <emissions CO_abs="2957.624043" CO2_abs="303301.713485" HC_abs="20.379473" PMx_abs="4.391414" NOx_abs="115.355399" fuel_abs="130.376677" electricity_abs="0"/>
    </tripinfo>
    <tripinfo id="carflow5.4" depart="80.00" departLane="HegyaljaKeletBe_0" departPos="120.23" departSpeed="13.89" departDelay="0.00" arrival="278.00" arrivalLane="BudaorsiKi_0" arrivalPos="614.60" arrivalSpeed="13.46" duration="198.00" routeLength="2590.32" waitSteps="0" timeLoss="10.77" rerouteNo="1" devices="tripinfo_carflow5.4 routing_carflow5.4 emissions_carflow5.4" vType="golfiv" speedFactor="1.00" vaporized="">
        <emissions CO_abs="2657.661084" CO2_abs="368604.358797" HC_abs="20.560226" PMx_abs="4.781870" NOx_abs="135.600705" fuel_abs="158.447718" electricity_abs="0"/>
    </tripinfo>
    <tripinfo id="carflow23.1" depart="200.00" departLane="AlkotasBe_0" departPos="82.09" departSpeed="13.89" departDelay="0.00" arrival="283.00" arrivalLane="JagelloKi_0" arrivalPos="459.55" arrivalSpeed="13.04" duration="83.00" routeLength="1039.81" waitSteps="0" timeLoss="7.88" rerouteNo="1" devices="tripinfo_carflow23.1 routing_carflow23.1 emissions_carflow23.1" vType="golfiv" speedFactor="1.00" vaporized="">