<?xml version="1.0" encoding="UTF-8"?>

<!-- generated on Tue Jun 12 15:24:25 2018 by SUMO Version 0.30.0
<?xml version="1.0" encoding="UTF-8"?>

<configuration xmlns:xsi="http://www.w3.org/2001/XMLSchema-instance" xsi:noNamespaceSchemaLocation="http://sumo.dlr.de/xsd/sumoConfiguration.xsd">

    <input>
        <net-file value="/home/levente/Egyetem/6_felev/onlab/BAH/BAH36000.net.xml"/>
        <route-files value="/home/levente/Egyetem/6_felev/onlab/BAH/BAH36000.rou.xml"/>
    </input>

    <output>
        <tripinfo-output value="nappallog.txt"/>
    </output>

    <time>
        <begin value="0"/>
        <end value="500"/>
    </time>

    <processing>
        <time-to-teleport value="-1"/>
    </processing>

    <report>
        <verbose value="true"/>
        <log value="/home/levente/Egyetem/6_felev/onlab/nappal.txt"/>
        <duration-log.statistics value="true"/>
    </report>

    <emissions>
        <device.emissions.probability value="1"/>
    </emissions>

</configuration>
-->

<tripinfos xmlns:xsi="http://www.w3.org/2001/XMLSchema-instance" xsi:noNamespaceSchemaLocation="http://sumo.dlr.de/xsd/tripinfo_file.xsd">
    <tripinfo id="carflow10.0" depart="0.00" departLane="HegyaljaNyugatBe_0" departPos="915.12" departSpeed="13.89" departDelay="0.00" arrival="75.00" arrivalLane="AlkotasKi_1" arrivalPos="139.14" arrivalSpeed="13.55" duration="75.00" routeLength="720.82" waitSteps="14" timeLoss="22.21" rerouteNo="1" devices="tripinfo_carflow10.0 routing_carflow10.0 emissions_carflow10.0" vType="golfiv" speedFactor="1.00" vaporized="">
        <emissions CO_abs="1730.253186" CO2_abs="142276.178235" HC_abs="11.185853" PMx_abs="2.263193" NOx_abs="55.883693" fuel_abs="61.158501" electricity_abs="0"/>
    </tripinfo>
    <tripinfo id="carflow7.0" depart="0.00" departLane="HegyaljaNyugatBe_0" departPos="935.76" departSpeed="13.89" departDelay="0.00" arrival="83.00" arrivalLane="HegyaljaKeletKi_1" arrivalPos="55.97" arrivalSpeed="12.97" duration="83.00" routeLength="1098.41" waitSteps="0" timeLoss="3.44" rerouteNo="1" devices="tripinfo_carflow7.0 routing_carflow7.0 emissions_carflow7.0" vType="golfiv" speedFactor="1.00" vaporized="">
        <emissions CO_abs="1083.931541" CO2_abs="151587.123827" HC_abs="8.440719" PMx_abs="2.042772" NOx_abs="56.238060" fuel_abs="65.160894" electricity_abs="0"/>
    </tripinfo>
    <tripinfo id="carflow23.0" depart="0.00" departLane="AlkotasBe_0" departPos="61.45" departSpeed="13.89" departDelay="0.00" arrival="84.00" arrivalLane="JagelloKi_0" arrivalPos="459.55" arrivalSpeed="13.59" duration="84.00" routeLength="1060.45" waitSteps="0" timeLoss="6.76" rerouteNo="1" devices="tripinfo_carflow23.0 routing_carflow23.0 emissions_carflow23.0" vType="golfiv" speedFactor="1.00" vaporized="">
        <emissions CO_abs="1794.820171" CO2_abs="197659.899209" HC_abs="12.726052" PMx_abs="2.820824" NOx_abs="74.919065" fuel_abs="84.965653" electricity_abs="0"/>
    </tripinfo>
    <tripinfo id="carflow3.0" depart="0.00" departLane="HegyaljaKeletBe_0" departPos="78.95" departSpeed="13.89" departDelay="0.00" arrival="114.00" arrivalLane="AlkotasKi_1" arrivalPos="139.14" arrivalSpeed="13.67" duration="114.00" routeLength="1449.12" waitSteps="0" timeLoss="8.73" rerouteNo="1" devices="tripinfo_carflow3.0 routing_carflow3.0 emissions_carflow3.0" vType="golfiv" speedFactor="1.00" vaporized="">
        <emissions CO_abs="2174.856565" CO2_abs="249247.938620" HC_abs="15.609342" PMx_abs="3.455721" NOx_abs="93.638399" fuel_abs="107.141269" electricity_abs="0"/>
    </tripinfo>
    <tripinfo id="carflow13.0" depart="0.00" departLane="HegyaljaNyugatBe_0" departPos="853.20" departSpeed="13.89" departDelay="0.00" arrival="121.00" arrivalLane="KarolinaKi_1" arrivalPos="90.50" arrivalSpeed="13.08" duration="121.00" routeLength="1529.07" waitSteps="0" timeLoss="10.58" rerouteNo="1" devices="tripinfo_carflow13.0 routing_carflow13.0 emissions_carflow13.0" vType="golfiv" speedFactor="1.00" vaporized="">
        <emissions CO_abs="1968.851494" CO2_abs="236228.874661" HC_abs="14.329902" PMx_abs="3.098799" NOx_abs="87.342342" fuel_abs="101.545133" electricity_abs="0"/>
    </tripinfo>
    <tripinfo id="carflow12.0" depart="0.00" departLane="HegyaljaNyugatBe_0" departPos="873.84" departSpeed="13.89" departDelay="0.00" arrival="134.00" arrivalLane="BudaorsiKi_0" arrivalPos="614.60" arrivalSpeed="13.19" duration="134.00" routeLength="1773.71" waitSteps="0" timeLoss="5.37" rerouteNo="1" devices="tripinfo_carflow12.0 routing_carflow12.0 emissions_carflow12.0" vType="golfiv" speedFactor="1.00" vaporized="">
        <emissions CO_abs="1511.946788" CO2_abs="239960.549626" HC_abs="12.386977" PMx_abs="3.027275" NOx_abs="87.411280" fuel_abs="103.149060" electricity_abs="0"/>
    </tripinfo>
    <tripinfo id="carflow21.0" depart="0.00" departLane="AlkotasBe_2" departPos="82.09" departSpeed="13.89" departDelay="0.00" arrival="137.00" arrivalLane="HegyaljaKeletKi_1" arrivalPos="55.97" arrivalSpeed="13.41" duration="137.00" routeLength="1324.16" waitSteps="19" timeLoss="41.12" rerouteNo="1" devices="tripinfo_carflow21.0 routing_carflow21.0 emissions_carflow21.0" vType="golfiv" speedFactor="1.00" vaporized="">
        <emissions CO_abs="3782.850582" CO2_abs="270756.425583" HC_abs="23.472900" PMx_abs="4.365869" NOx_abs="106.947618" fuel_abs="116.387015" electricity_abs="0"/>
    </tripinfo>
    <tripinfo id="carflow41.0" depart="1.00" departLane="BudaorsiBe_1" departPos="8.72" departSpeed="16.67" departDelay="1.00" arrival="139.00" arrivalLane="KarolinaKi_1" arrivalPos="90.50" arrivalSpeed="13.81" duration="138.00" routeLength="1806.26" waitSteps="0" timeLoss="7.47" rerouteNo="1" devices="tripinfo_carflow41.0 routing_carflow41.0 emissions_carflow41.0" vType="golfiv" speedFactor="1.00" vaporized="">
        <emissions CO_abs="2189.717718" CO2_abs="279471.356614" HC_abs="16.369325" PMx_abs="3.838984" NOx_abs="104.476430" fuel_abs="120.132924" electricity_abs="0"/>
    </tripinfo>
    <tripinfo id="carflow3.1" depart="30.00" departLane="HegyaljaKeletBe_0" departPos="120.23" departSpeed="13.89" departDelay="0.00" arrival="141.00" arrivalLane="AlkotasKi_1" arrivalPos="139.14" arrivalSpeed="13.40" duration="111.00" routeLength="1407.84" waitSteps="0" timeLoss="9.07" rerouteNo="1" devices="tripinfo_carflow3.1 routing_carflow3.1 emissions_carflow3.1" vType="golfiv" speedFactor="1.00" vaporized="">
        <emissions CO_abs="2252.427917" CO2_abs="227995.762949" HC_abs="15.503799" PMx_abs="3.390689" NOx_abs="87.501755" fuel_abs="98.005683" electricity_abs="0"/>
    </tripinfo>
    <tripinfo id="carflow45.0" depart="0.00" departLane="KarolinaBe_0" departPos="15.48" departSpeed="13.89" departDelay="0.00" arrival="143.00" arrivalLane="AlkotasKi_1" arrivalPos="139.14" arrivalSpeed="13.52" duration="143.00" routeLength="1802.68" waitSteps="0" timeLoss="12.55" rerouteNo="1" devices="tripinfo_carflow45.0 routing_carflow45.0 emissions_carflow45.0" vType="golfiv" speedFactor="1.00" vaporized="">
        <emissions CO_abs="2601.085950" CO2_abs="290275.937293" HC_abs="18.405713" PMx_abs="4.026954" NOx_abs="108.955920" fuel_abs="124.777541" electricity_abs="0"/>
    </tripinfo>
    <tripinfo id="carflow27.0" depart="0.00" departLane="AlkotasBe_2" departPos="40.81" departSpeed="13.89" departDelay="0.00" arrival="149.00" arrivalLane="KarolinaKi_1" arrivalPos="90.50" arrivalSpeed="13.29" duration="149.00" routeLength="1781.24" waitSteps="8" timeLoss="20.32" rerouteNo="1" devices="tripinfo_carflow27.0 routing_carflow27.0 emissions_carflow27.0" vType="golfiv" speedFactor="1.00" vaporized="">
        <emissions CO_abs="2544.595078" CO2_abs="281547.832511" HC_abs="18.007503" PMx_abs="3.905466" NOx_abs="105.713081" fuel_abs="121.025719" electricity_abs="0"/>
    </tripinfo>
    <tripinfo id="carflow44.0" depart="0.00" departLane="KarolinaBe_0" departPos="36.12" departSpeed="13.89" departDelay="0.00" arrival="149.00" arrivalLane="JagelloKi_0" arrivalPos="459.55" arrivalSpeed="12.94" duration="149.00" routeLength="1920.18" waitSteps="0" timeLoss="10.16" rerouteNo="1" devices="tripinfo_carflow44.0 routing_carflow44.0 emissions_carflow44.0" vType="golfiv" speedFactor="1.00" vaporized="">
        <emissions CO_abs="2478.571021" CO2_abs="278583.043380" HC_abs="17.715058" PMx_abs="3.966920" NOx_abs="105.443467" fuel_abs="119.751081" electricity_abs="0"/>
    </tripinfo>
    <tripinfo id="carflow11.0" depart="0.00" departLane="HegyaljaNyugatBe_0" departPos="894.48" departSpeed="13.89" departDelay="0.00" arrival="164.00" arrivalLane="VillanyiKi_0" arrivalPos="613.00" arrivalSpeed="13.77" duration="164.00" routeLength="2082.10" waitSteps="2" timeLoss="13.29" rerouteNo="1" devices="tripinfo_carflow11.0 routing_carflow11.0 emissions_carflow11.0" vType="golfiv" speedFactor="1.00" vaporized="">
        <emissions CO_abs="2700.911655" CO2_abs="329823.761576" HC_abs="19.837775" PMx_abs="4.348035" NOx_abs="121.943994" fuel_abs="141.777696" electricity_abs="0"/>
    </tripinfo>
    <tripinfo id="carflow2.0" depart="0.00" departLane="HegyaljaKeletBe_0" departPos="99.59" departSpeed="13.89" departDelay="0.00" arrival="166.00" arrivalLane="JagelloKi_0" arrivalPos="459.55" arrivalSpeed="13.69" duration="166.00" routeLength="1675.06" waitSteps="28" timeLoss="44.57" rerouteNo="1" devices="tripinfo_carflow2.0 routing_carflow2.0 emissions_carflow2.0" vType="golfiv" speedFactor="1.00" vaporized="">
        <emissions CO_abs="4229.778325" CO2_abs="308555.456495" HC_abs="26.397427" PMx_abs="4.822444" NOx_abs="120.332883" fuel_abs="132.635488" electricity_abs="0"/>
    </tripinfo>
    <tripinfo id="carflow26.1" depart="5.00" departLane="AlkotasBe_0" departPos="82.09" departSpeed="13.89" departDelay="0.00" arrival="169.00" arrivalLane="BudaorsiKi_0" arrivalPos="614.60" arrivalSpeed="13.87" duration="164.00" routeLength="2016.15" waitSteps="7" timeLoss="18.20" rerouteNo="1" devices="tripinfo_carflow26.1 routing_carflow26.1 emissions_carflow26.1" vType="golfiv" speedFactor="1.00" vaporized="">
        <emissions CO_abs="2537.818249" CO2_abs="297322.838926" HC_abs="18.323021" PMx_abs="4.055094" NOx_abs="110.957480" fuel_abs="127.806739" electricity_abs="0"/>
    </tripinfo>
    <tripinfo id="carflow2.1" depart="24.00" departLane="HegyaljaKeletBe_0" departPos="120.23" departSpeed="13.89" departDelay="0.00" arrival="169.00" arrivalLane="JagelloKi_0" arrivalPos="459.55" arrivalSpeed="13.77" duration="145.00" routeLength="1654.42" waitSteps="9" timeLoss="25.63" rerouteNo="1" devices="tripinfo_carflow2.1 routing_carflow2.1 emissions_carflow2.1" vType="golfiv" speedFactor="1.00" vaporized="">
        <emissions CO_abs="3450.868210" CO2_abs="311906.923380" HC_abs="22.915899" PMx_abs="4.664182" NOx_abs="120.118955" fuel_abs="134.075780" electricity_abs="0"/>
    </tripinfo>
    <tripinfo id="carflow26.2" depart="10.00" departLane="AlkotasBe_0" departPos="82.09" departSpeed="13.89" departDelay="0.00" arrival="171.00" arrivalLane="BudaorsiKi_0" arrivalPos="614.60" arrivalSpeed="13.44" duration="161.00" routeLength="2016.15" waitSteps="2" timeLoss="15.75" rerouteNo="1" devices="tripinfo_carflow26.2 routing_carflow26.2 emissions_carflow26.2" vType="golfiv" speedFactor="1.00" vaporized="">
        <emissions CO_abs="2468.417998" CO2_abs="302966.388250" HC_abs="18.100185" PMx_abs="3.940474" NOx_abs="111.608797" fuel_abs="130.232881" electricity_abs="0"/>
    </tripinfo>
    <tripinfo id="carflow23.1" depart="85.00" departLane="AlkotasBe_0" departPos="82.09" departSpeed="13.89" departDelay="-0.71" arrival="171.00" arrivalLane="JagelloKi_0" arrivalPos="459.55" arrivalSpeed="12.95" duration="86.00" routeLength="1039.81" waitSteps="1" timeLoss="11.00" rerouteNo="1" devices="tripinfo_carflow23.1 routing_carflow23.1 emissions_carflow23.1" vType="golfiv" speedFactor="1.00" vaporized="">
        <emissions CO_abs="1847.707656" CO2_abs="169363.812411" HC_abs="12.335842" PMx_abs="2.539196" NOx_abs="65.163213" fuel_abs="72.802421" electricity_abs="0"/>
    </tripinfo>
    <tripinfo id="carflow26.0" depart="0.00" departLane="AlkotasBe_1" departPos="82.09" departSpeed="13.89" departDelay="0.00" arrival="173.00" arrivalLane="BudaorsiKi_0" arrivalPos="614.60" arrivalSpeed="13.80" duration="173.00" routeLength="2016.15" waitSteps="12" timeLoss="27.68" rerouteNo="1" devices="tripinfo_carflow26.0 routing_carflow26.0 emissions_carflow26.0" vType="golfiv" speedFactor="1.00" vaporized="">
        <emissions CO_abs="2977.743003" CO2_abs="336186.382704" HC_abs="21.254245" PMx_abs="4.471567" NOx_abs="125.033419" fuel_abs="144.512811" electricity_abs="0"/>
    </tripinfo>
    <tripinfo id="carflow17.0" depart="0.00" departLane="JagelloBe_0" departPos="414.13" departSpeed="13.89" departDelay="0.00" arrival="175.00" arrivalLane="AlkotasKi_1" arrivalPos="139.14" arrivalSpeed="12.90" duration="175.00" routeLength="779.09" waitSteps="105" timeLoss="118.75" rerouteNo="1" devices="tripinfo_carflow17.0 routing_carflow17.0 emissions_carflow17.0" vType="golfiv" speedFactor="1.00" vaporized="">
        <emissions CO_abs="7062.366439" CO2_abs="239607.303642" HC_abs="37.747762" PMx_abs="4.549566" NOx_abs="99.590023" fuel_abs="102.999379" electricity_abs="0"/>
    </tripinfo>
    <tripinfo id="carflow26.3" depart="15.00" departLane="AlkotasBe_0" departPos="82.09" departSpeed="13.89" departDelay="0.00" arrival="175.00" arrivalLane="BudaorsiKi_1" arrivalPos="614.60" arrivalSpeed="13.47" duration="160.00" routeLength="2016.15" waitSteps="0" timeLoss="14.40" rerouteNo="1" devices="tripinfo_carflow26.3 routing_carflow26.3 emissions_carflow26.3" vType="golfiv" speedFactor="1.00" vaporized="">
        <emissions CO_abs="2921.927487" CO2_abs="317368.865140" HC_abs="20.617083" PMx_abs="4.528345" NOx_abs="120.318478" fuel_abs="136.423521" electricity_abs="0"/>
    </tripinfo>
    <tripinfo id="carflow15.0" depart="0.00" departLane="JagelloBe_0" departPos="434.77" departSpeed="13.89" departDelay="0.00" arrival="177.00" arrivalLane="HegyaljaNyugatKi_0" arrivalPos="401.54" arrivalSpeed="13.57" duration="177.00" routeLength="1662.69" waitSteps="45" timeLoss="56.76" rerouteNo="1" devices="tripinfo_carflow15.0 routing_carflow15.0 emissions_carflow15.0" vType="golfiv" speedFactor="1.00" vaporized="">
        <emissions CO_abs="6769.087129" CO2_abs="327203.465713" HC_abs="38.391052" PMx_abs="5.390392" NOx_abs="129.217137" fuel_abs="140.653064" electricity_abs="0"/>
    </tripinfo>
    <tripinfo id="carflow26.4" depart="20.00" departLane="AlkotasBe_0" departPos="82.09" departSpeed="13.89" departDelay="0.00" arrival="177.00" arrivalLane="BudaorsiKi_0" arrivalPos="614.60" arrivalSpeed="13.43" duration="157.00" routeLength="2016.15" waitSteps="0" timeLoss="10.90" rerouteNo="1" devices="tripinfo_carflow26.4 routing_carflow26.4 emissions_carflow26.4" vType="golfiv" speedFactor="1.00" vaporized="">
        <emissions CO_abs="2299.920133" CO2_abs="301364.898596" HC_abs="17.336934" PMx_abs="3.959520" NOx_abs="111.495461" fuel_abs="129.544255" electricity_abs="0"/>
    </tripinfo>
    <tripinfo id="carflow26.5" depart="25.00" departLane="AlkotasBe_0" departPos="82.09" departSpeed="13.89" departDelay="0.00" arrival="178.00" arrivalLane="BudaorsiKi_1" arrivalPos="614.60" arrivalSpeed="12.83" duration="153.00" routeLength="2016.15" waitSteps="0" timeLoss="7.61" rerouteNo="1" devices="tripinfo_carflow26.5 routing_carflow26.5 emissions_carflow26.5" vType="golfiv" speedFactor="1.00" vaporized="">
        <emissions CO_abs="2039.689736" CO2_abs="265667.583026" HC_abs="15.428071" PMx_abs="3.623901" NOx_abs="99.113757" fuel_abs="114.199284" electricity_abs="0"/>
    </tripinfo>
    <tripinfo id="carflow3.2" depart="60.00" departLane="HegyaljaKeletBe_0" departPos="120.23" departSpeed="13.89" departDelay="0.00" arrival="182.00" arrivalLane="AlkotasKi_1" arrivalPos="139.14" arrivalSpeed="12.84" duration="122.00" routeLength="1407.84" waitSteps="5" timeLoss="20.45" rerouteNo="1" devices="tripinfo_carflow3.2 routing_carflow3.2 emissions_carflow3.2" vType="golfiv" speedFactor="1.00" vaporized="">
        <emissions CO_abs="3159.625938" CO2_abs="272480.246013" HC_abs="20.669502" PMx_abs="4.126431" NOx_abs="105.396530" fuel_abs="117.127925" electricity_abs="0"/>
    </tripinfo>
    <tripinfo id="carflow26.6" depart="30.00" departLane="AlkotasBe_0" departPos="82.09" departSpeed="13.89" departDelay="0.00" arrival="182.00" arrivalLane="BudaorsiKi_0" arrivalPos="614.60" arrivalSpeed="13.70" duration="152.00" routeLength="2016.15" waitSteps="0" timeLoss="5.91" rerouteNo="1" devices="tripinfo_carflow26.6 routing_carflow26.6 emissions_carflow26.6" vType="golfiv" speedFactor="1.00" vaporized="">
        <emissions CO_abs="1681.447563" CO2_abs="260283.147309" HC_abs="13.603828" PMx_abs="3.313573" NOx_abs="95.066741" fuel_abs="111.884878" electricity_abs="0"/>
    </tripinfo>
    <tripinfo id="carflow14.0" depart="0.00" departLane="JagelloBe_0" departPos="455.41" departSpeed="13.89" departDelay="0.00" arrival="184.00" arrivalLane="HegyaljaKeletKi_1" arrivalPos="55.97" arrivalSpeed="13.00" duration="184.00" routeLength="1136.04" waitSteps="87" timeLoss="101.72" rerouteNo="1" devices="tripinfo_carflow14.0 routing_carflow14.0 emissions_carflow14.0" vType="golfiv" speedFactor="1.00" vaporized="">
        <emissions CO_abs="7782.022108" CO2_abs="284409.126485" HC_abs="42.035064" PMx_abs="5.182031" NOx_abs="116.385123" fuel_abs="122.258084" electricity_abs="0"/>
    </tripinfo>
    <tripinfo id="carflow26.7" depart="35.00" departLane="AlkotasBe_0" departPos="82.09" departSpeed="13.89" departDelay="0.00" arrival="187.00" arrivalLane="BudaorsiKi_0" arrivalPos="614.60" arrivalSpeed="13.58" duration="152.00" routeLength="2016.15" waitSteps="0" timeLoss="5.87" rerouteNo="1" devices="tripinfo_carflow26.7 routing_carflow26.7 emissions_carflow26.7" vType="golfiv" speedFactor="1.00" vaporized="">
        <emissions CO_abs="1622.733782" CO2_abs="264490.055499" HC_abs="13.408223" PMx_abs="3.277866" NOx_abs="95.907861" fuel_abs="113.693326" electricity_abs="0"/>
    </tripinfo>
    <tripinfo id="carflow42.0" depart="0.00" departLane="KarolinaBe_0" departPos="77.40" departSpeed="13.89" departDelay="0.00" arrival="192.00" arrivalLane="HegyaljaKeletKi_1" arrivalPos="55.97" arrivalSpeed="13.30" duration="192.00" routeLength="1466.48" waitSteps="67" timeLoss="85.45" rerouteNo="1" devices="tripinfo_carflow42.0 routing_carflow42.0 emissions_carflow42.0" vType="golfiv" speedFactor="1.00" vaporized="">
        <emissions CO_abs="7815.914968" CO2_abs="355352.556124" HC_abs="43.835819" PMx_abs="6.105571" NOx_abs="142.726100" fuel_abs="152.753285" electricity_abs="0"/>
    </tripinfo>
    <tripinfo id="carflow6.0" depart="0.00" departLane="HegyaljaKeletBe_1" departPos="99.59" departSpeed="13.89" departDelay="0.00" arrival="193.00" arrivalLane="KarolinaKi_1" arrivalPos="90.50" arrivalSpeed="13.18" duration="193.00" routeLength="1817.89" waitSteps="41" timeLoss="61.16" rerouteNo="1" devices="tripinfo_carflow6.0 routing_carflow6.0 emissions_carflow6.0" vType="golfiv" speedFactor="1.00" vaporized="">
        <emissions CO_abs="5442.629628" CO2_abs="354168.615854" HC_abs="32.915470" PMx_abs="5.509383" NOx_abs="137.684258" fuel_abs="152.243300" electricity_abs="0"/>
    </tripinfo>
    <tripinfo id="carflow28.0" depart="0.00" departLane="VillanyiBe_0" departPos="598.48" departSpeed="13.89" departDelay="0.00" arrival="194.00" arrivalLane="HegyaljaKeletKi_1" arrivalPos="55.97" arrivalSpeed="12.90" duration="194.00" routeLength="1504.74" waitSteps="63" timeLoss="85.44" rerouteNo="1" devices="tripinfo_carflow28.0 routing_carflow28.0 emissions_carflow28.0" vType="golfiv" speedFactor="1.00" vaporized="">
        <emissions CO_abs="9014.832438" CO2_abs="391115.925967" HC_abs="50.153146" PMx_abs="6.861606" NOx_abs="158.184385" fuel_abs="168.126792" electricity_abs="0"/>
    </tripinfo>
    <tripinfo id="carflow42.1" depart="60.00" departLane="KarolinaBe_0" departPos="77.40" departSpeed="13.89" departDelay="0.00" arrival="196.00" arrivalLane="HegyaljaKeletKi_1" arrivalPos="55.97" arrivalSpeed="13.74" duration="136.00" routeLength="1466.48" waitSteps="14" timeLoss="30.20" rerouteNo="1" devices="tripinfo_carflow42.1 routing_carflow42.1 emissions_carflow42.1" vType="golfiv" speedFactor="1.00" vaporized="">
        <emissions CO_abs="3151.606903" CO2_abs="289108.643475" HC_abs="20.944481" PMx_abs="4.216887" NOx_abs="110.523211" fuel_abs="124.275874" electricity_abs="0"/>
    </tripinfo>
    <tripinfo id="carflow3.3" depart="90.00" departLane="HegyaljaKeletBe_0" departPos="120.23" departSpeed="13.89" departDelay="0.00" arrival="199.00" arrivalLane="AlkotasKi_1" arrivalPos="139.14" arrivalSpeed="13.45" duration="109.00" routeLength="1407.84" waitSteps="0" timeLoss="7.21" rerouteNo="1" devices="tripinfo_carflow3.3 routing_carflow3.3 emissions_carflow3.3" vType="golfiv" speedFactor="1.00" vaporized="">
        <emissions CO_abs="1980.811821" CO2_abs="224720.349493" HC_abs="14.211650" PMx_abs="3.219381" NOx_abs="85.159988" fuel_abs="96.597741" electricity_abs="0"/>
    </tripinfo>
    <tripinfo id="carflow20.0" depart="0.00" departLane="JagelloBe_0" departPos="352.21" departSpeed="13.89" departDelay="0.00" arrival="202.00" arrivalLane="KarolinaKi_1" arrivalPos="90.50" arrivalSpeed="13.36" duration="202.00" routeLength="1587.34" waitSteps="66" timeLoss="86.75" rerouteNo="1" devices="tripinfo_carflow20.0 routing_carflow20.0 emissions_carflow20.0" vType="golfiv" speedFactor="1.00" vaporized="">
        <emissions CO_abs="6756.669153" CO2_abs="353473.352322" HC_abs="38.929798" PMx_abs="5.695712" NOx_abs="139.053002" fuel_abs="151.945237" electricity_abs="0"/>
    </tripinfo>
    <tripinfo id="carflow38.1" depart="7.00" departLane="BudaorsiBe_0" departPos="24.04" departSpeed="16.67" departDelay="-0.50" arrival="202.00" arrivalLane="AlkotasKi_2" arrivalPos="139.14" arrivalSpeed="13.07" duration="195.00" routeLength="1801.05" waitSteps="36" timeLoss="65.25" rerouteNo="1" devices="tripinfo_carflow38.1 routing_carflow38.1 emissions_carflow38.1" vType="golfiv" speedFactor="1.00" vaporized="">
        <emissions CO_abs="6050.872177" CO2_abs="362758.076606" HC_abs="35.950234" PMx_abs="5.872207" NOx_abs="143.394605" fuel_abs="155.935549" electricity_abs="0"/>
    </tripinfo>
    <tripinfo id="carflow38.0" depart="0.00" departLane="BudaorsiBe_1" departPos="16.85" departSpeed="16.67" departDelay="0.00" arrival="202.00" arrivalLane="AlkotasKi_1" arrivalPos="139.14" arrivalSpeed="13.14" duration="202.00" routeLength="1808.24" waitSteps="50" timeLoss="71.63" rerouteNo="1" devices="tripinfo_carflow38.0 routing_carflow38.0 emissions_carflow38.0" vType="golfiv" speedFactor="1.00" vaporized="">
        <emissions CO_abs="6293.924230" CO2_abs="366513.754870" HC_abs="37.121202" PMx_abs="5.892742" NOx_abs="144.173238" fuel_abs="157.550228" electricity_abs="0"/>
    </tripinfo>
    <tripinfo id="carflow38.4" depart="30.00" departLane="BudaorsiBe_1" departPos="48.61" departSpeed="13.89" departDelay="0.00" arrival="204.00" arrivalLane="AlkotasKi_2" arrivalPos="139.14" arrivalSpeed="13.15" duration="174.00" routeLength="1776.48" waitSteps="23" timeLoss="45.47" rerouteNo="1" devices="tripinfo_carflow38.4 routing_carflow38.4 emissions_carflow38.4" vType="golfiv" speedFactor="1.00" vaporized="">
        <emissions CO_abs="3931.295094" CO2_abs="314551.041352" HC_abs="25.214448" PMx_abs="4.991013" NOx_abs="123.447387" fuel_abs="135.212279" electricity_abs="0"/>
    </tripinfo>
    <tripinfo id="carflow38.2" depart="15.00" departLane="BudaorsiBe_0" departPos="48.61" departSpeed="13.89" departDelay="0.00" arrival="204.00" arrivalLane="AlkotasKi_1" arrivalPos="139.14" arrivalSpeed="13.30" duration="189.00" routeLength="1776.48" waitSteps="32" timeLoss="60.48" rerouteNo="1" devices="tripinfo_carflow38.2 routing_carflow38.2 emissions_carflow38.2" vType="golfiv" speedFactor="1.00" vaporized="">
        <emissions CO_abs="5542.520307" CO2_abs="343550.205033" HC_abs="33.182547" PMx_abs="5.482582" NOx_abs="135.054585" fuel_abs="147.678818" electricity_abs="0"/>
    </tripinfo>
    <tripinfo id="carflow14.2" depart="40.00" departLane="JagelloBe_0" departPos="455.41" departSpeed="13.89" departDelay="0.00" arrival="205.00" arrivalLane="HegyaljaKeletKi_2" arrivalPos="55.97" arrivalSpeed="13.69" duration="165.00" routeLength="1136.04" waitSteps="57" timeLoss="83.01" rerouteNo="1" devices="tripinfo_carflow14.2 routing_carflow14.2 emissions_carflow14.2" vType="golfiv" speedFactor="1.00" vaporized="">
        <emissions CO_abs="5750.475475" CO2_abs="289198.109620" HC_abs="32.899612" PMx_abs="5.023368" NOx_abs="117.039528" fuel_abs="124.315203" electricity_abs="0"/>
    </tripinfo>
    <tripinfo id="carflow14.1" depart="20.00" departLane="JagelloBe_0" departPos="455.41" departSpeed="13.89" departDelay="0.00" arrival="206.00" arrivalLane="HegyaljaKeletKi_1" arrivalPos="55.97" arrivalSpeed="13.53" duration="186.00" routeLength="1136.04" waitSteps="79" timeLoss="103.49" rerouteNo="1" devices="tripinfo_carflow14.1 routing_carflow14.1 emissions_carflow14.1" vType="golfiv" speedFactor="1.00" vaporized="">
        <emissions CO_abs="7378.625487" CO2_abs="298380.848799" HC_abs="40.554397" PMx_abs="5.506885" NOx_abs="123.098898" fuel_abs="128.263230" electricity_abs="0"/>
    </tripinfo>
    <tripinfo id="carflow38.5" depart="37.00" departLane="BudaorsiBe_0" departPos="28.25" departSpeed="16.67" departDelay="-0.50" arrival="206.00" arrivalLane="AlkotasKi_2" arrivalPos="139.14" arrivalSpeed="13.18" duration="169.00" routeLength="1796.84" waitSteps="23" timeLoss="39.18" rerouteNo="1" devices="tripinfo_carflow38.5 routing_carflow38.5 emissions_carflow38.5" vType="golfiv" speedFactor="1.00" vaporized="">
        <emissions CO_abs="3725.352432" CO2_abs="329890.227184" HC_abs="24.538021" PMx_abs="4.904489" NOx_abs="126.601396" fuel_abs="141.806181" electricity_abs="0"/>
    </tripinfo>
    <tripinfo id="carflow7.2" depart="80.00" departLane="HegyaljaNyugatBe_0" departPos="935.76" departSpeed="13.89" departDelay="0.00" arrival="207.00" arrivalLane="HegyaljaKeletKi_2" arrivalPos="55.97" arrivalSpeed="12.88" duration="127.00" routeLength="1098.41" waitSteps="21" timeLoss="47.48" rerouteNo="1" devices="tripinfo_carflow7.2 routing_carflow7.2 emissions_carflow7.2" vType="golfiv" speedFactor="1.00" vaporized="">
        <emissions CO_abs="3874.164047" CO2_abs="240799.875925" HC_abs="23.245472" PMx_abs="3.959780" NOx_abs="95.798501" fuel_abs="103.510240" electricity_abs="0"/>
    </tripinfo>
    <tripinfo id="carflow14.3" depart="60.00" departLane="JagelloBe_0" departPos="455.41" departSpeed="13.89" departDelay="0.00" arrival="208.00" arrivalLane="HegyaljaKeletKi_1" arrivalPos="55.97" arrivalSpeed="13.12" duration="148.00" routeLength="1136.04" waitSteps="45" timeLoss="65.48" rerouteNo="1" devices="tripinfo_carflow14.3 routing_carflow14.3 emissions_carflow14.3" vType="golfiv" speedFactor="1.00" vaporized="">
        <emissions CO_abs="4137.559789" CO2_abs="244986.117779" HC_abs="24.521434" PMx_abs="3.987856" NOx_abs="96.944462" fuel_abs="105.309992" electricity_abs="0"/>
    </tripinfo>
    <tripinfo id="carflow38.6" depart="45.00" departLane="BudaorsiBe_0" departPos="48.61" departSpeed="13.89" departDelay="0.00" arrival="208.00" arrivalLane="AlkotasKi_1" arrivalPos="139.14" arrivalSpeed="13.11" duration="163.00" routeLength="1776.48" waitSteps="13" timeLoss="34.25" rerouteNo="1" devices="tripinfo_carflow38.6 routing_carflow38.6 emissions_carflow38.6" vType="golfiv" speedFactor="1.00" vaporized="">
        <emissions CO_abs="3674.496516" CO2_abs="313288.105677" HC_abs="23.987285" PMx_abs="4.760619" NOx_abs="121.134491" fuel_abs="134.669559" electricity_abs="0"/>
    </tripinfo>
    <tripinfo id="carflow22.0" depart="0.00" departLane="AlkotasBe_0" departPos="82.09" departSpeed="13.89" departDelay="0.00" arrival="208.00" arrivalLane="HegyaljaNyugatKi_0" arrivalPos="401.54" arrivalSpeed="13.39" duration="208.00" routeLength="2096.08" waitSteps="40" timeLoss="56.59" rerouteNo="1" devices="tripinfo_carflow22.0 routing_carflow22.0 emissions_carflow22.0" vType="golfiv" speedFactor="1.00" vaporized="">
        <emissions CO_abs="5152.307293" CO2_abs="383192.436911" HC_abs="32.265629" PMx_abs="5.844246" NOx_abs="148.005221" fuel_abs="164.719081" electricity_abs="0"/>
    </tripinfo>
    <tripinfo id="carflow38.7" depart="52.00" departLane="BudaorsiBe_0" departPos="48.61" departSpeed="13.89" departDelay="-0.50" arrival="209.00" arrivalLane="AlkotasKi_1" arrivalPos="139.14" arrivalSpeed="13.77" duration="157.00" routeLength="1776.48" waitSteps="13" timeLoss="28.80" rerouteNo="1" devices="tripinfo_carflow38.7 routing_carflow38.7 emissions_carflow38.7" vType="golfiv" speedFactor="1.00" vaporized="">
        <emissions CO_abs="3262.665302" CO2_abs="314753.148198" HC_abs="22.106630" PMx_abs="4.572032" NOx_abs="119.957325" fuel_abs="135.299311" electricity_abs="0"/>
    </tripinfo>
    <tripinfo id="carflow39.0" depart="1.00" departLane="BudaorsiBe_0" departPos="9.90" departSpeed="16.67" departDelay="1.00" arrival="209.00" arrivalLane="VillanyiKi_0" arrivalPos="613.00" arrivalSpeed="13.20" duration="208.00" routeLength="2399.39" waitSteps="15" timeLoss="34.62" rerouteNo="1" devices="tripinfo_carflow39.0 routing_carflow39.0 emissions_carflow39.0" vType="golfiv" speedFactor="1.00" vaporized="">
        <emissions CO_abs="3651.839418" CO2_abs="405067.354795" HC_abs="25.854151" PMx_abs="5.504622" NOx_abs="151.450453" fuel_abs="174.121790" electricity_abs="0"/>
    </tripinfo>
    <tripinfo id="carflow7.1" depart="40.00" departLane="HegyaljaNyugatBe_0" departPos="935.76" departSpeed="13.89" departDelay="0.00" arrival="210.00" arrivalLane="HegyaljaKeletKi_1" arrivalPos="55.97" arrivalSpeed="13.30" duration="170.00" routeLength="1098.41" waitSteps="64" timeLoss="89.92" rerouteNo="1" devices="tripinfo_carflow7.1 routing_carflow7.1 emissions_carflow7.1" vType="golfiv" speedFactor="1.00" vaporized="">