<?xml version="1.0" encoding="UTF-8"?>

<!-- generated on Tue Jun 12 15:48:33 2018 by SUMO Version 0.30.0
<?xml version="1.0" encoding="UTF-8"?>

<configuration xmlns:xsi="http://www.w3.org/2001/XMLSchema-instance" xsi:noNamespaceSchemaLocation="http://sumo.dlr.de/xsd/sumoConfiguration.xsd">

    <input>
        <net-file value="/home/levente/Egyetem/6_felev/onlab/BAH/BAH21600.net.xml"/>
        <route-files value="/home/levente/Egyetem/6_felev/onlab/BAH/BAH21600.rou.xml"/>
    </input>

    <output>
        <tripinfo-output value="reggellog.txt"/>
    </output>

    <time>
        <begin value="0"/>
        <end value="500"/>
    </time>

    <processing>
        <time-to-teleport value="-1"/>
    </processing>

    <report>
        <verbose value="true"/>
        <log value="/home/levente/Egyetem/6_felev/onlab/nappal.txt"/>
        <duration-log.statistics value="true"/>
    </report>

    <emissions>
        <device.emissions.probability value="1"/>
    </emissions>

</configuration>
-->

<tripinfos xmlns:xsi="http://www.w3.org/2001/XMLSchema-instance" xsi:noNamespaceSchemaLocation="http://sumo.dlr.de/xsd/tripinfo_file.xsd">
    <tripinfo id="carflow10.0" depart="0.00" departLane="HegyaljaNyugatBe_0" departPos="915.12" departSpeed="13.89" departDelay="0.00" arrival="77.00" arrivalLane="AlkotasKi_1" arrivalPos="139.14" arrivalSpeed="12.86" duration="77.00" routeLength="720.82" waitSteps="16" timeLoss="24.84" rerouteNo="1" devices="tripinfo_carflow10.0 routing_carflow10.0 emissions_carflow10.0" vType="golfiv" speedFactor="1.00" vaporized="">
        <emissions CO_abs="1757.711217" CO2_abs="138156.957710" HC_abs="11.227638" PMx_abs="2.223942" NOx_abs="54.443007" fuel_abs="59.387850" electricity_abs="0"/>
    </tripinfo>
    <tripinfo id="carflow7.0" depart="0.00" departLane="HegyaljaNyugatBe_0" departPos="935.76" departSpeed="13.89" departDelay="0.00" arrival="83.00" arrivalLane="HegyaljaKeletKi_1" arrivalPos="55.97" arrivalSpeed="13.76" duration="83.00" routeLength="1098.41" waitSteps="0" timeLoss="3.05" rerouteNo="1" devices="tripinfo_carflow7.0 routing_carflow7.0 emissions_carflow7.0" vType="golfiv" speedFactor="1.00" vaporized="">
        <emissions CO_abs="810.916025" CO2_abs="149235.289921" HC_abs="7.018861" PMx_abs="1.739284" NOx_abs="53.237240" fuel_abs="64.150159" electricity_abs="0"/>
    </tripinfo>
    <tripinfo id="carflow23.0" depart="0.00" departLane="AlkotasBe_0" departPos="61.45" departSpeed="13.89" departDelay="0.00" arrival="83.00" arrivalLane="JagelloKi_0" arrivalPos="459.55" arrivalSpeed="13.66" duration="83.00" routeLength="1060.45" waitSteps="0" timeLoss="6.34" rerouteNo="1" devices="tripinfo_carflow23.0 routing_carflow23.0 emissions_carflow23.0" vType="golfiv" speedFactor="1.00" vaporized="">
        <emissions CO_abs="1560.350119" CO2_abs="171990.175416" HC_abs="11.088394" PMx_abs="2.442604" NOx_abs="65.107202" fuel_abs="73.931344" electricity_abs="0"/>
    </tripinfo>
    <tripinfo id="carflow3.0" depart="0.00" departLane="HegyaljaKeletBe_0" departPos="78.95" departSpeed="13.89" departDelay="0.00" arrival="114.00" arrivalLane="AlkotasKi_1" arrivalPos="139.14" arrivalSpeed="13.44" duration="114.00" routeLength="1449.12" waitSteps="0" timeLoss="8.77" rerouteNo="1" devices="tripinfo_carflow3.0 routing_carflow3.0 emissions_carflow3.0" vType="golfiv" speedFactor="1.00" vaporized="">
        <emissions CO_abs="2179.145910" CO2_abs="234335.604057" HC_abs="15.337977" PMx_abs="3.397085" NOx_abs="89.235155" fuel_abs="100.730949" electricity_abs="0"/>
    </tripinfo>
    <tripinfo id="carflow13.0" depart="0.00" departLane="HegyaljaNyugatBe_0" departPos="853.20" departSpeed="13.89" departDelay="0.00" arrival="122.00" arrivalLane="KarolinaKi_1" arrivalPos="90.50" arrivalSpeed="13.13" duration="122.00" routeLength="1529.07" waitSteps="0" timeLoss="10.97" rerouteNo="1" devices="tripinfo_carflow13.0 routing_carflow13.0 emissions_carflow13.0" vType="golfiv" speedFactor="1.00" vaporized="">
        <emissions CO_abs="2350.976209" CO2_abs="255939.321058" HC_abs="16.623552" PMx_abs="3.577440" NOx_abs="96.335230" fuel_abs="110.017683" electricity_abs="0"/>
    </tripinfo>
    <tripinfo id="carflow3.1" depart="18.00" departLane="HegyaljaKeletBe_0" departPos="120.23" departSpeed="13.89" departDelay="-0.75" arrival="125.00" arrivalLane="AlkotasKi_1" arrivalPos="139.14" arrivalSpeed="13.04" duration="107.00" routeLength="1407.84" waitSteps="0" timeLoss="5.46" rerouteNo="1" devices="tripinfo_carflow3.1 routing_carflow3.1 emissions_carflow3.1" vType="golfiv" speedFactor="1.00" vaporized="">
        <emissions CO_abs="1792.380964" CO2_abs="215910.353515" HC_abs="13.114780" PMx_abs="3.058491" NOx_abs="81.434692" fuel_abs="92.810667" electricity_abs="0"/>
    </tripinfo>
    <tripinfo id="carflow12.0" depart="0.00" departLane="HegyaljaNyugatBe_0" departPos="873.84" departSpeed="13.89" departDelay="0.00" arrival="133.00" arrivalLane="BudaorsiKi_0" arrivalPos="614.60" arrivalSpeed="13.15" duration="133.00" routeLength="1773.71" waitSteps="0" timeLoss="4.98" rerouteNo="1" devices="tripinfo_carflow12.0 routing_carflow12.0 emissions_carflow12.0" vType="golfiv" speedFactor="1.00" vaporized="">
        <emissions CO_abs="1629.947604" CO2_abs="230816.280637" HC_abs="12.709136" PMx_abs="3.080536" NOx_abs="85.396306" fuel_abs="99.218182" electricity_abs="0"/>
    </tripinfo>
    <tripinfo id="carflow21.0" depart="0.00" departLane="AlkotasBe_2" departPos="82.09" departSpeed="13.89" departDelay="0.00" arrival="136.00" arrivalLane="HegyaljaKeletKi_1" arrivalPos="55.97" arrivalSpeed="13.46" duration="136.00" routeLength="1324.16" waitSteps="19" timeLoss="40.34" rerouteNo="1" devices="tripinfo_carflow21.0 routing_carflow21.0 emissions_carflow21.0" vType="golfiv" speedFactor="1.00" vaporized="">
        <emissions CO_abs="3779.050405" CO2_abs="274424.694551" HC_abs="23.574463" PMx_abs="4.407107" NOx_abs="108.241384" fuel_abs="117.963844" electricity_abs="0"/>
    </tripinfo>
    <tripinfo id="carflow41.0" depart="1.00" departLane="BudaorsiBe_1" departPos="8.72" departSpeed="16.67" departDelay="1.00" arrival="140.00" arrivalLane="KarolinaKi_1" arrivalPos="90.50" arrivalSpeed="13.59" duration="139.00" routeLength="1806.26" waitSteps="0" timeLoss="9.20" rerouteNo="1" devices="tripinfo_carflow41.0 routing_carflow41.0 emissions_carflow41.0" vType="golfiv" speedFactor="1.00" vaporized="">
        <emissions CO_abs="2185.496176" CO2_abs="269146.702106" HC_abs="16.128169" PMx_abs="3.657900" NOx_abs="100.484063" fuel_abs="115.694909" electricity_abs="0"/>
    </tripinfo>
    <tripinfo id="carflow27.0" depart="0.00" departLane="AlkotasBe_2" departPos="40.81" departSpeed="13.89" departDelay="0.00" arrival="149.00" arrivalLane="KarolinaKi_1" arrivalPos="90.50" arrivalSpeed="12.90" duration="149.00" routeLength="1781.24" waitSteps="9" timeLoss="20.32" rerouteNo="1" devices="tripinfo_carflow27.0 routing_carflow27.0 emissions_carflow27.0" vType="golfiv" speedFactor="1.00" vaporized="">
        <emissions CO_abs="2808.863060" CO2_abs="272929.086486" HC_abs="19.135087" PMx_abs="4.123494" NOx_abs="105.064979" fuel_abs="117.320626" electricity_abs="0"/>
    </tripinfo>
    <tripinfo id="carflow2.0" depart="0.00" departLane="HegyaljaKeletBe_0" departPos="99.59" departSpeed="13.89" departDelay="0.00" arrival="156.00" arrivalLane="JagelloKi_0" arrivalPos="459.55" arrivalSpeed="12.95" duration="156.00" routeLength="1675.06" waitSteps="18" timeLoss="34.65" rerouteNo="1" devices="tripinfo_carflow2.0 routing_carflow2.0 emissions_carflow2.0" vType="golfiv" speedFactor="1.00" vaporized="">
        <emissions CO_abs="3991.023143" CO2_abs="306719.278635" HC_abs="25.293259" PMx_abs="4.820812" NOx_abs="119.860499" fuel_abs="131.845961" electricity_abs="0"/>
    </tripinfo>
    <tripinfo id="carflow2.1" depart="24.00" departLane="HegyaljaKeletBe_0" departPos="120.23" departSpeed="13.89" departDelay="0.00" arrival="159.00" arrivalLane="JagelloKi_0" arrivalPos="459.55" arrivalSpeed="13.70" duration="135.00" routeLength="1654.42" waitSteps="0" timeLoss="14.93" rerouteNo="1" devices="tripinfo_carflow2.1 routing_carflow2.1 emissions_carflow2.1" vType="golfiv" speedFactor="1.00" vaporized="">
        <emissions CO_abs="3062.102973" CO2_abs="294679.858999" HC_abs="20.690560" PMx_abs="4.306679" NOx_abs="112.683921" fuel_abs="126.670574" electricity_abs="0"/>
    </tripinfo>
    <tripinfo id="carflow3.2" depart="37.00" departLane="HegyaljaKeletBe_0" departPos="111.61" departSpeed="13.89" departDelay="-0.50" arrival="160.00" arrivalLane="AlkotasKi_1" arrivalPos="139.14" arrivalSpeed="12.98" duration="123.00" routeLength="1416.46" waitSteps="6" timeLoss="20.52" rerouteNo="1" devices="tripinfo_carflow3.2 routing_carflow3.2 emissions_carflow3.2" vType="golfiv" speedFactor="1.00" vaporized="">
        <emissions CO_abs="3045.547916" CO2_abs="260543.677944" HC_abs="19.915418" PMx_abs="4.030917" NOx_abs="101.343693" fuel_abs="111.996785" electricity_abs="0"/>
    </tripinfo>
    <tripinfo id="carflow11.0" depart="0.00" departLane="HegyaljaNyugatBe_0" departPos="894.48" departSpeed="13.89" departDelay="0.00" arrival="164.00" arrivalLane="VillanyiKi_0" arrivalPos="613.00" arrivalSpeed="13.11" duration="164.00" routeLength="2082.10" waitSteps="0" timeLoss="13.42" rerouteNo="1" devices="tripinfo_carflow11.0 routing_carflow11.0 emissions_carflow11.0" vType="golfiv" speedFactor="1.00" vaporized="">
        <emissions CO_abs="2715.383419" CO2_abs="307899.353991" HC_abs="19.377876" PMx_abs="4.214952" NOx_abs="115.074312" fuel_abs="132.353189" electricity_abs="0"/>
    </tripinfo>
    <tripinfo id="carflow17.0" depart="0.00" departLane="JagelloBe_0" departPos="414.13" departSpeed="13.89" departDelay="0.00" arrival="167.00" arrivalLane="AlkotasKi_1" arrivalPos="139.14" arrivalSpeed="13.06" duration="167.00" routeLength="779.09" waitSteps="96" timeLoss="110.60" rerouteNo="1" devices="tripinfo_carflow17.0 routing_carflow17.0 emissions_carflow17.0" vType="golfiv" speedFactor="1.00" vaporized="">
        <emissions CO_abs="6510.697038" CO2_abs="234868.486198" HC_abs="35.116119" PMx_abs="4.365273" NOx_abs="96.888404" fuel_abs="100.962119" electricity_abs="0"/>
    </tripinfo>
    <tripinfo id="carflow23.1" depart="85.00" departLane="AlkotasBe_0" departPos="82.09" departSpeed="13.89" departDelay="-0.71" arrival="168.00" arrivalLane="JagelloKi_0" arrivalPos="459.55" arrivalSpeed="13.28" duration="83.00" routeLength="1039.81" waitSteps="0" timeLoss="7.82" rerouteNo="1" devices="tripinfo_carflow23.1 routing_carflow23.1 emissions_carflow23.1" vType="golfiv" speedFactor="1.00" vaporized="">
        <emissions CO_abs="1642.503015" CO2_abs="156212.701967" HC_abs="11.095379" PMx_abs="2.349005" NOx_abs="60.250070" fuel_abs="67.149234" electricity_abs="0"/>
    </tripinfo>
    <tripinfo id="carflow26.1" depart="6.00" departLane="AlkotasBe_0" departPos="82.09" departSpeed="13.89" departDelay="-0.67" arrival="170.00" arrivalLane="BudaorsiKi_0" arrivalPos="614.60" arrivalSpeed="13.31" duration="164.00" routeLength="2016.15" waitSteps="6" timeLoss="17.81" rerouteNo="1" devices="tripinfo_carflow26.1 routing_carflow26.1 emissions_carflow26.1" vType="golfiv" speedFactor="1.00" vaporized="">
        <emissions CO_abs="2642.603647" CO2_abs="310414.579332" HC_abs="19.136585" PMx_abs="4.212941" NOx_abs="115.730312" fuel_abs="133.434366" electricity_abs="0"/>
    </tripinfo>
    <tripinfo id="carflow26.3" depart="19.00" departLane="AlkotasBe_0" departPos="82.09" departSpeed="13.89" departDelay="-1.00" arrival="172.00" arrivalLane="BudaorsiKi_0" arrivalPos="614.60" arrivalSpeed="13.15" duration="153.00" routeLength="2016.15" waitSteps="0" timeLoss="6.99" rerouteNo="1" devices="tripinfo_carflow26.3 routing_carflow26.3 emissions_carflow26.3" vType="golfiv" speedFactor="1.00" vaporized="">
        <emissions CO_abs="1741.034398" CO2_abs="273176.430930" HC_abs="14.167378" PMx_abs="3.416973" NOx_abs="99.387885" fuel_abs="117.427237" electricity_abs="0"/>
    </tripinfo>
    <tripinfo id="carflow26.0" depart="0.00" departLane="AlkotasBe_1" departPos="82.09" departSpeed="13.89" departDelay="0.00" arrival="173.00" arrivalLane="BudaorsiKi_0" arrivalPos="614.60" arrivalSpeed="13.42" duration="173.00" routeLength="2016.15" waitSteps="13" timeLoss="27.73" rerouteNo="1" devices="tripinfo_carflow26.0 routing_carflow26.0 emissions_carflow26.0" vType="golfiv" speedFactor="1.00" vaporized="">
        <emissions CO_abs="2948.441547" CO2_abs="326603.565384" HC_abs="20.876075" PMx_abs="4.370748" NOx_abs="121.689334" fuel_abs="140.393545" electricity_abs="0"/>
    </tripinfo>
    <tripinfo id="carflow14.0" depart="0.00" departLane="JagelloBe_0" departPos="455.41" departSpeed="13.89" departDelay="0.00" arrival="174.00" arrivalLane="HegyaljaKeletKi_1" arrivalPos="55.97" arrivalSpeed="13.63" duration="174.00" routeLength="1136.04" waitSteps="76" timeLoss="91.98" rerouteNo="1" devices="tripinfo_carflow14.0 routing_carflow14.0 emissions_carflow14.0" vType="golfiv" speedFactor="1.00" vaporized="">
        <emissions CO_abs="7860.312791" CO2_abs="298526.609452" HC_abs="42.633992" PMx_abs="5.311972" NOx_abs="121.203035" fuel_abs="128.326655" electricity_abs="0"/>
    </tripinfo>
    <tripinfo id="carflow26.2" depart="13.00" departLane="AlkotasBe_0" departPos="82.09" departSpeed="13.89" departDelay="-0.33" arrival="175.00" arrivalLane="BudaorsiKi_0" arrivalPos="614.60" arrivalSpeed="13.25" duration="162.00" routeLength="2016.15" waitSteps="0" timeLoss="16.45" rerouteNo="1" devices="tripinfo_carflow26.2 routing_carflow26.2 emissions_carflow26.2" vType="golfiv" speedFactor="1.00" vaporized="">
        <emissions CO_abs="3087.188472" CO2_abs="319487.416432" HC_abs="21.400142" PMx_abs="4.549527" NOx_abs="121.018531" fuel_abs="137.334338" electricity_abs="0"/>
    </tripinfo>
    <tripinfo id="carflow14.1" depart="15.00" departLane="JagelloBe_0" departPos="455.41" departSpeed="13.89" departDelay="0.00" arrival="176.00" arrivalLane="HegyaljaKeletKi_1" arrivalPos="55.97" arrivalSpeed="13.45" duration="161.00" routeLength="1136.04" waitSteps="63" timeLoss="78.75" rerouteNo="1" devices="tripinfo_carflow14.1 routing_carflow14.1 emissions_carflow14.1" vType="golfiv" speedFactor="1.00" vaporized="">
        <emissions CO_abs="7422.307829" CO2_abs="288854.362585" HC_abs="40.532033" PMx_abs="5.236670" NOx_abs="118.100672" fuel_abs="124.168570" electricity_abs="0"/>
    </tripinfo>
    <tripinfo id="carflow15.0" depart="0.00" departLane="JagelloBe_0" departPos="434.77" departSpeed="13.89" departDelay="0.00" arrival="176.00" arrivalLane="HegyaljaNyugatKi_0" arrivalPos="401.54" arrivalSpeed="13.00" duration="176.00" routeLength="1662.69" waitSteps="46" timeLoss="55.65" rerouteNo="1" devices="tripinfo_carflow15.0 routing_carflow15.0 emissions_carflow15.0" vType="golfiv" speedFactor="1.00" vaporized="">
        <emissions CO_abs="6256.182536" CO2_abs="311224.137627" HC_abs="35.554560" PMx_abs="4.850222" NOx_abs="120.607987" fuel_abs="133.784425" electricity_abs="0"/>
    </tripinfo>
    <tripinfo id="carflow14.2" depart="30.00" departLane="JagelloBe_0" departPos="455.41" departSpeed="13.89" departDelay="0.00" arrival="178.00" arrivalLane="HegyaljaKeletKi_1" arrivalPos="55.97" arrivalSpeed="13.61" duration="148.00" routeLength="1136.04" waitSteps="48" timeLoss="65.61" rerouteNo="1" devices="tripinfo_carflow14.2 routing_carflow14.2 emissions_carflow14.2" vType="golfiv" speedFactor="1.00" vaporized="">
        <emissions CO_abs="4021.285004" CO2_abs="245976.086223" HC_abs="24.028791" PMx_abs="4.079449" NOx_abs="97.895746" fuel_abs="105.735304" electricity_abs="0"/>
    </tripinfo>
    <tripinfo id="carflow26.4" depart="26.00" departLane="AlkotasBe_0" departPos="82.09" departSpeed="13.89" departDelay="-0.66" arrival="178.00" arrivalLane="BudaorsiKi_0" arrivalPos="614.60" arrivalSpeed="13.89" duration="152.00" routeLength="2016.15" waitSteps="0" timeLoss="6.11" rerouteNo="1" devices="tripinfo_carflow26.4 routing_carflow26.4 emissions_carflow26.4" vType="golfiv" speedFactor="1.00" vaporized="">
        <emissions CO_abs="1667.763832" CO2_abs="264331.836814" HC_abs="13.647857" PMx_abs="3.323384" NOx_abs="96.238074" fuel_abs="113.625278" electricity_abs="0"/>
    </tripinfo>
    <tripinfo id="carflow14.4" depart="60.00" departLane="JagelloBe_0" departPos="455.41" departSpeed="13.89" departDelay="0.00" arrival="180.00" arrivalLane="HegyaljaKeletKi_1" arrivalPos="55.97" arrivalSpeed="13.71" duration="120.00" routeLength="1136.04" waitSteps="26" timeLoss="37.56" rerouteNo="1" devices="tripinfo_carflow14.4 routing_carflow14.4 emissions_carflow14.4" vType="golfiv" speedFactor="1.00" vaporized="">
        <emissions CO_abs="2096.155746" CO2_abs="195463.415465" HC_abs="14.003302" PMx_abs="2.789736" NOx_abs="74.114073" fuel_abs="84.021743" electricity_abs="0"/>
    </tripinfo>
    <tripinfo id="carflow3.3" depart="56.00" departLane="HegyaljaKeletBe_0" departPos="120.23" departSpeed="13.89" departDelay="-0.25" arrival="182.00" arrivalLane="AlkotasKi_1" arrivalPos="139.14" arrivalSpeed="13.30" duration="126.00" routeLength="1407.84" waitSteps="10" timeLoss="23.81" rerouteNo="1" devices="tripinfo_carflow3.3 routing_carflow3.3 emissions_carflow3.3" vType="golfiv" speedFactor="1.00" vaporized="">
        <emissions CO_abs="2841.174345" CO2_abs="246875.055289" HC_abs="18.682574" PMx_abs="3.800360" NOx_abs="95.892885" fuel_abs="106.121213" electricity_abs="0"/>
    </tripinfo>
    <tripinfo id="carflow14.3" depart="45.00" departLane="JagelloBe_0" departPos="455.41" departSpeed="13.89" departDelay="0.00" arrival="182.00" arrivalLane="HegyaljaKeletKi_1" arrivalPos="55.97" arrivalSpeed="13.05" duration="137.00" routeLength="1136.04" waitSteps="33" timeLoss="54.53" rerouteNo="1" devices="tripinfo_carflow14.3 routing_carflow14.3 emissions_carflow14.3" vType="golfiv" speedFactor="1.00" vaporized="">
        <emissions CO_abs="3386.605981" CO2_abs="226909.275709" HC_abs="20.658380" PMx_abs="3.538334" NOx_abs="88.794584" fuel_abs="97.539315" electricity_abs="0"/>
    </tripinfo>
    <tripinfo id="carflow7.1" depart="20.00" departLane="HegyaljaNyugatBe_0" departPos="935.76" departSpeed="13.89" departDelay="0.00" arrival="184.00" arrivalLane="HegyaljaKeletKi_1" arrivalPos="55.97" arrivalSpeed="13.37" duration="164.00" routeLength="1098.41" waitSteps="67" timeLoss="83.94" rerouteNo="1" devices="tripinfo_carflow7.1 routing_carflow7.1 emissions_carflow7.1" vType="golfiv" speedFactor="1.00" vaporized="">
        <emissions CO_abs="9499.316833" CO2_abs="316251.646456" HC_abs="50.593403" PMx_abs="5.800943" NOx_abs="129.662030" fuel_abs="135.946799" electricity_abs="0"/>
    </tripinfo>
    <tripinfo id="carflow26.5" depart="33.00" departLane="AlkotasBe_0" departPos="82.09" departSpeed="13.89" departDelay="-0.33" arrival="185.00" arrivalLane="BudaorsiKi_0" arrivalPos="614.60" arrivalSpeed="13.69" duration="152.00" routeLength="2016.15" waitSteps="0" timeLoss="6.12" rerouteNo="1" devices="tripinfo_carflow26.5 routing_carflow26.5 emissions_carflow26.5" vType="golfiv" speedFactor="1.00" vaporized="">
        <emissions CO_abs="1528.791465" CO2_abs="273883.965608" HC_abs="13.119946" PMx_abs="3.231203" NOx_abs="98.046335" fuel_abs="117.731511" electricity_abs="0"/>
    </tripinfo>
    <tripinfo id="carflow3.4" depart="75.00" departLane="HegyaljaKeletBe_0" departPos="116.88" departSpeed="13.89" departDelay="0.00" arrival="189.00" arrivalLane="AlkotasKi_1" arrivalPos="139.14" arrivalSpeed="13.74" duration="114.00" routeLength="1411.19" waitSteps="0" timeLoss="12.14" rerouteNo="1" devices="tripinfo_carflow3.4 routing_carflow3.4 emissions_carflow3.4" vType="golfiv" speedFactor="1.00" vaporized="">
        <emissions CO_abs="2869.652399" CO2_abs="270130.801953" HC_abs="19.330359" PMx_abs="4.102575" NOx_abs="104.558210" fuel_abs="116.117759" electricity_abs="0"/>
    </tripinfo>
    <tripinfo id="carflow26.6" depart="39.00" departLane="AlkotasBe_0" departPos="82.09" departSpeed="13.89" departDelay="-1.00" arrival="190.00" arrivalLane="BudaorsiKi_0" arrivalPos="614.60" arrivalSpeed="13.00" duration="151.00" routeLength="2016.15" waitSteps="0" timeLoss="5.64" rerouteNo="1" devices="tripinfo_carflow26.6 routing_carflow26.6 emissions_carflow26.6" vType="golfiv" speedFactor="1.00" vaporized="">
        <emissions CO_abs="1746.137087" CO2_abs="273431.166313" HC_abs="14.138764" PMx_abs="3.458596" NOx_abs="99.660070" fuel_abs="117.536676" electricity_abs="0"/>
    </tripinfo>
    <tripinfo id="carflow42.0" depart="0.00" departLane="KarolinaBe_0" departPos="77.40" departSpeed="13.89" departDelay="0.00" arrival="192.00" arrivalLane="HegyaljaKeletKi_1" arrivalPos="55.97" arrivalSpeed="13.21" duration="192.00" routeLength="1466.48" waitSteps="69" timeLoss="85.95" rerouteNo="1" devices="tripinfo_carflow42.0 routing_carflow42.0 emissions_carflow42.0" vType="golfiv" speedFactor="1.00" vaporized="">
        <emissions CO_abs="7830.396819" CO2_abs="362968.353448" HC_abs="44.082688" PMx_abs="6.266135" NOx_abs="145.951046" fuel_abs="156.026867" electricity_abs="0"/>
    </tripinfo>
    <tripinfo id="carflow38.1" depart="10.00" departLane="BudaorsiBe_1" departPos="48.61" departSpeed="13.89" departDelay="0.00" arrival="192.00" arrivalLane="AlkotasKi_2" arrivalPos="139.14" arrivalSpeed="13.74" duration="182.00" routeLength="1776.48" waitSteps="27" timeLoss="53.43" rerouteNo="1" devices="tripinfo_carflow38.1 routing_carflow38.1 emissions_carflow38.1" vType="golfiv" speedFactor="1.00" vaporized="">
        <emissions CO_abs="4909.165929" CO2_abs="378687.498924" HC_abs="30.997175" PMx_abs="5.730570" NOx_abs="146.425227" fuel_abs="162.782445" electricity_abs="0"/>
    </tripinfo>
    <tripinfo id="carflow45.0" depart="0.00" departLane="KarolinaBe_0" departPos="15.48" departSpeed="13.89" departDelay="0.00" arrival="192.00" arrivalLane="AlkotasKi_1" arrivalPos="139.14" arrivalSpeed="13.22" duration="192.00" routeLength="1802.68" waitSteps="43" timeLoss="62.11" rerouteNo="1" devices="tripinfo_carflow45.0 routing_carflow45.0 emissions_carflow45.0" vType="golfiv" speedFactor="1.00" vaporized="">
        <emissions CO_abs="7694.578639" CO2_abs="377668.192213" HC_abs="43.826008" PMx_abs="6.421198" NOx_abs="151.148246" fuel_abs="162.345568" electricity_abs="0"/>
    </tripinfo>
    <tripinfo id="carflow28.0" depart="0.00" departLane="VillanyiBe_0" departPos="598.48" departSpeed="13.89" departDelay="0.00" arrival="194.00" arrivalLane="HegyaljaKeletKi_1" arrivalPos="55.97" arrivalSpeed="13.25" duration="194.00" routeLength="1504.74" waitSteps="65" timeLoss="85.20" rerouteNo="1" devices="tripinfo_carflow28.0 routing_carflow28.0 emissions_carflow28.0" vType="golfiv" speedFactor="1.00" vaporized="">
        <emissions CO_abs="9004.249004" CO2_abs="367718.163913" HC_abs="49.527537" PMx_abs="6.487420" NOx_abs="148.981354" fuel_abs="158.069318" electricity_abs="0"/>
    </tripinfo>
    <tripinfo id="carflow6.0" depart="0.00" departLane="HegyaljaKeletBe_1" departPos="99.59" departSpeed="13.89" departDelay="0.00" arrival="194.00" arrivalLane="KarolinaKi_1" arrivalPos="90.50" arrivalSpeed="13.20" duration="194.00" routeLength="1817.89" waitSteps="39" timeLoss="62.16" rerouteNo="1" devices="tripinfo_carflow6.0 routing_carflow6.0 emissions_carflow6.0" vType="golfiv" speedFactor="1.00" vaporized="">
        <emissions CO_abs="5134.738943" CO2_abs="341715.418141" HC_abs="31.241683" PMx_abs="5.238093" NOx_abs="132.292317" fuel_abs="146.890183" electricity_abs="0"/>
    </tripinfo>
    <tripinfo id="carflow38.2" depart="20.00" departLane="BudaorsiBe_0" departPos="42.39" departSpeed="13.89" departDelay="0.00" arrival="194.00" arrivalLane="AlkotasKi_2" arrivalPos="139.14" arrivalSpeed="13.85" duration="174.00" routeLength="1782.70" waitSteps="20" timeLoss="45.26" rerouteNo="1" devices="tripinfo_carflow38.2 routing_carflow38.2 emissions_carflow38.2" vType="golfiv" speedFactor="1.00" vaporized="">
        <emissions CO_abs="4462.183145" CO2_abs="347629.159236" HC_abs="28.379293" PMx_abs="5.359112" NOx_abs="135.286860" fuel_abs="149.431528" electricity_abs="0"/>
    </tripinfo>
    <tripinfo id="carflow38.0" depart="0.00" departLane="BudaorsiBe_1" departPos="16.85" departSpeed="16.67" departDelay="0.00" arrival="195.00" arrivalLane="AlkotasKi_1" arrivalPos="139.14" arrivalSpeed="12.93" duration="195.00" routeLength="1808.24" waitSteps="37" timeLoss="64.44" rerouteNo="1" devices="tripinfo_carflow38.0 routing_carflow38.0 emissions_carflow38.0" vType="golfiv" speedFactor="1.00" vaporized="">
        <emissions CO_abs="4712.719718" CO2_abs="349328.763322" HC_abs="29.577738" PMx_abs="5.431842" NOx_abs="136.294777" fuel_abs="150.162241" electricity_abs="0"/>
    </tripinfo>
    <tripinfo id="carflow42.1" depart="60.00" departLane="KarolinaBe_0" departPos="77.40" departSpeed="13.89" departDelay="0.00" arrival="196.00" arrivalLane="HegyaljaKeletKi_1" arrivalPos="55.97" arrivalSpeed="12.84" duration="136.00" routeLength="1466.48" waitSteps="15" timeLoss="29.70" rerouteNo="1" devices="tripinfo_carflow42.1 routing_carflow42.1 emissions_carflow42.1" vType="golfiv" speedFactor="1.00" vaporized="">
        <emissions CO_abs="3125.586367" CO2_abs="263293.462198" HC_abs="20.316498" PMx_abs="4.104639" NOx_abs="102.731038" fuel_abs="113.178777" electricity_abs="0"/>
    </tripinfo>
    <tripinfo id="carflow38.3" depart="30.00" departLane="BudaorsiBe_1" departPos="16.85" departSpeed="16.67" departDelay="0.00" arrival="196.00" arrivalLane="AlkotasKi_2" arrivalPos="139.14" arrivalSpeed="13.19" duration="166.00" routeLength="1808.24" waitSteps="6" timeLoss="35.56" rerouteNo="1" devices="tripinfo_carflow38.3 routing_carflow38.3 emissions_carflow38.3" vType="golfiv" speedFactor="1.00" vaporized="">
        <emissions CO_abs="4281.013184" CO2_abs="342943.793465" HC_abs="27.404089" PMx_abs="5.243266" NOx_abs="133.171407" fuel_abs="147.417438" electricity_abs="0"/>
    </tripinfo>
    <tripinfo id="carflow28.1" depart="60.00" departLane="VillanyiBe_0" departPos="598.48" departSpeed="13.89" departDelay="0.00" arrival="197.00" arrivalLane="HegyaljaKeletKi_1" arrivalPos="55.97" arrivalSpeed="13.65" duration="137.00" routeLength="1504.74" waitSteps="10" timeLoss="28.56" rerouteNo="1" devices="tripinfo_carflow28.1 routing_carflow28.1 emissions_carflow28.1" vType="golfiv" speedFactor="1.00" vaporized="">
        <emissions CO_abs="3428.310243" CO2_abs="275190.858073" HC_abs="22.030489" PMx_abs="4.363998" NOx_abs="107.990895" fuel_abs="118.292988" electricity_abs="0"/>
    </tripinfo>
    <tripinfo id="carflow38.5" depart="50.00" departLane="BudaorsiBe_0" departPos="34.67" departSpeed="15.28" departDelay="0.00" arrival="197.00" arrivalLane="AlkotasKi_1" arrivalPos="139.14" arrivalSpeed="13.00" duration="147.00" routeLength="1790.42" waitSteps="0" timeLoss="18.00" rerouteNo="1" devices="tripinfo_carflow38.5 routing_carflow38.5 emissions_carflow38.5" vType="golfiv" speedFactor="1.00" vaporized="">
        <emissions CO_abs="3666.906246" CO2_abs="324949.189363" HC_abs="24.242774" PMx_abs="4.922170" NOx_abs="125.640457" fuel_abs="139.682069" electricity_abs="0"/>
    </tripinfo>
    <tripinfo id="carflow41.1" depart="60.00" departLane="BudaorsiBe_1" departPos="16.85" departSpeed="16.67" departDelay="0.00" arrival="198.00" arrivalLane="KarolinaKi_1" arrivalPos="90.50" arrivalSpeed="13.15" duration="138.00" routeLength="1798.13" waitSteps="0" timeLoss="8.46" rerouteNo="1" devices="tripinfo_carflow41.1 routing_carflow41.1 emissions_carflow41.1" vType="golfiv" speedFactor="1.00" vaporized="">
        <emissions CO_abs="2566.426003" CO2_abs="295677.252625" HC_abs="18.507639" PMx_abs="4.273825" NOx_abs="112.261943" fuel_abs="127.099011" electricity_abs="0"/>
    </tripinfo>
    <tripinfo id="carflow38.4" depart="40.00" departLane="BudaorsiBe_0" departPos="29.60" departSpeed="16.67" departDelay="0.00" arrival="199.00" arrivalLane="AlkotasKi_1" arrivalPos="139.14" arrivalSpeed="12.93" duration="159.00" routeLength="1795.49" waitSteps="0" timeLoss="29.39" rerouteNo="1" devices="tripinfo_carflow38.4 routing_carflow38.4 emissions_carflow38.4" vType="golfiv" speedFactor="1.00" vaporized="">
        <emissions CO_abs="4599.649549" CO2_abs="335861.909033" HC_abs="28.706300" PMx_abs="5.273625" NOx_abs="132.074070" fuel_abs="144.373287" electricity_abs="0"/>
    </tripinfo>
    <tripinfo id="carflow20.0" depart="0.00" departLane="JagelloBe_0" departPos="352.21" departSpeed="13.89" departDelay="0.00" arrival="203.00" arrivalLane="KarolinaKi_1" arrivalPos="90.50" arrivalSpeed="13.25" duration="203.00" routeLength="1587.34" waitSteps="62" timeLoss="87.98" rerouteNo="1" devices="tripinfo_carflow20.0 routing_carflow20.0 emissions_carflow20.0" vType="golfiv" speedFactor="1.00" vaporized="">
        <emissions CO_abs="7631.890030" CO2_abs="381858.036732" HC_abs="43.590557" PMx_abs="6.479783" NOx_abs="152.872424" fuel_abs="164.146497" electricity_abs="0"/>
    </tripinfo>
    <tripinfo id="carflow3.5" depart="93.00" departLane="HegyaljaKeletBe_0" departPos="120.23" departSpeed="13.89" departDelay="-0.75" arrival="204.00" arrivalLane="AlkotasKi_1" arrivalPos="139.14" arrivalSpeed="13.27" duration="111.00" routeLength="1407.84" waitSteps="0" timeLoss="9.14" rerouteNo="1" devices="tripinfo_carflow3.5 routing_carflow3.5 emissions_carflow3.5" vType="golfiv" speedFactor="1.00" vaporized="">
        <emissions CO_abs="2057.096942" CO2_abs="222798.422660" HC_abs="14.471661" PMx_abs="3.160845" NOx_abs="84.310963" fuel_abs="95.771699" electricity_abs="0"/>
    </tripinfo>
    <tripinfo id="carflow7.2" depart="40.00" departLane="HegyaljaNyugatBe_0" departPos="935.76" departSpeed="13.89" departDelay="0.00" arrival="205.00" arrivalLane="HegyaljaKeletKi_1" arrivalPos="55.97" arrivalSpeed="13.16" duration="165.00" routeLength="1098.41" waitSteps="60" timeLoss="85.61" rerouteNo="1" devices="tripinfo_carflow7.2 routing_carflow7.2 emissions_carflow7.2" vType="golfiv" speedFactor="1.00" vaporized="">